    1C
    1U disc.inp                                                         
    1UUSER                                                              
    1UDATE              26.february.2021                                
    1UTIME              09:09:09                                        
    1UHOST                                                              
    1UPGM               CalculiX                                        
    1UVERSION           Version 2.17                             
    1UCOMPILETIME       Thu Jul 23 21:29:36 CEST 2020                    
    1UDIR                                                               
    1UDBN                                                               
    1UMAT    1STEEL                                                     
    2C                         15523                                     1
 -1         1 2.50000E+01 0.00000E+00 0.00000E+00
 -1         2 1.00000E+02 0.00000E+00 0.00000E+00
 -1         3 6.12323E-15 1.00000E+02 0.00000E+00
 -1         4 1.53081E-15 2.50000E+01 0.00000E+00
 -1         5 2.50000E+01 0.00000E+00 1.00000E+01
 -1         6 1.00000E+02 0.00000E+00 1.00000E+01
 -1         7 6.12323E-15 1.00000E+02 1.00000E+01
 -1         8 1.53081E-15 2.50000E+01 1.00000E+01
 -1         9 2.75000E+01 0.00000E+00 0.00000E+00
 -1        10 3.00000E+01 0.00000E+00 0.00000E+00
 -1        11 3.25000E+01 0.00000E+00 0.00000E+00
 -1        12 3.50000E+01 0.00000E+00 0.00000E+00
 -1        13 3.75000E+01 0.00000E+00 0.00000E+00
 -1        14 4.00000E+01 0.00000E+00 0.00000E+00
 -1        15 4.25000E+01 0.00000E+00 0.00000E+00
 -1        16 4.50000E+01 0.00000E+00 0.00000E+00
 -1        17 4.75000E+01 0.00000E+00 0.00000E+00
 -1        18 5.00000E+01 0.00000E+00 0.00000E+00
 -1        19 5.25000E+01 0.00000E+00 0.00000E+00
 -1        20 5.50000E+01 0.00000E+00 0.00000E+00
 -1        21 5.75000E+01 0.00000E+00 0.00000E+00
 -1        22 6.00000E+01 0.00000E+00 0.00000E+00
 -1        23 6.25000E+01 0.00000E+00 0.00000E+00
 -1        24 6.50000E+01 0.00000E+00 0.00000E+00
 -1        25 6.75000E+01 0.00000E+00 0.00000E+00
 -1        26 7.00000E+01 0.00000E+00 0.00000E+00
 -1        27 7.25000E+01 0.00000E+00 0.00000E+00
 -1        28 7.50000E+01 0.00000E+00 0.00000E+00
 -1        29 7.75000E+01 0.00000E+00 0.00000E+00
 -1        30 8.00000E+01 0.00000E+00 0.00000E+00
 -1        31 8.25000E+01 0.00000E+00 0.00000E+00
 -1        32 8.50000E+01 0.00000E+00 0.00000E+00
 -1        33 8.75000E+01 0.00000E+00 0.00000E+00
 -1        34 9.00000E+01 0.00000E+00 0.00000E+00
 -1        35 9.25000E+01 0.00000E+00 0.00000E+00
 -1        36 9.50000E+01 0.00000E+00 0.00000E+00
 -1        37 9.75000E+01 0.00000E+00 0.00000E+00
 -1        38 2.62500E+01 0.00000E+00 0.00000E+00
 -1        39 2.87500E+01 0.00000E+00 0.00000E+00
 -1        40 3.12500E+01 0.00000E+00 0.00000E+00
 -1        41 3.37500E+01 0.00000E+00 0.00000E+00
 -1        42 3.62500E+01 0.00000E+00 0.00000E+00
 -1        43 3.87500E+01 0.00000E+00 0.00000E+00
 -1        44 4.12500E+01 0.00000E+00 0.00000E+00
 -1        45 4.37500E+01 0.00000E+00 0.00000E+00
 -1        46 4.62500E+01 0.00000E+00 0.00000E+00
 -1        47 4.87500E+01 0.00000E+00 0.00000E+00
 -1        48 5.12500E+01 0.00000E+00 0.00000E+00
 -1        49 5.37500E+01 0.00000E+00 0.00000E+00
 -1        50 5.62500E+01 0.00000E+00 0.00000E+00
 -1        51 5.87500E+01 0.00000E+00 0.00000E+00
 -1        52 6.12500E+01 0.00000E+00 0.00000E+00
 -1        53 6.37500E+01 0.00000E+00 0.00000E+00
 -1        54 6.62500E+01 0.00000E+00 0.00000E+00
 -1        55 6.87500E+01 0.00000E+00 0.00000E+00
 -1        56 7.12500E+01 0.00000E+00 0.00000E+00
 -1        57 7.37500E+01 0.00000E+00 0.00000E+00
 -1        58 7.62500E+01 0.00000E+00 0.00000E+00
 -1        59 7.87500E+01 0.00000E+00 0.00000E+00
 -1        60 8.12500E+01 0.00000E+00 0.00000E+00
 -1        61 8.37500E+01 0.00000E+00 0.00000E+00
 -1        62 8.62500E+01 0.00000E+00 0.00000E+00
 -1        63 8.87500E+01 0.00000E+00 0.00000E+00
 -1        64 9.12500E+01 0.00000E+00 0.00000E+00
 -1        65 9.37500E+01 0.00000E+00 0.00000E+00
 -1        66 9.62500E+01 0.00000E+00 0.00000E+00
 -1        67 9.87500E+01 0.00000E+00 0.00000E+00
 -1        68 9.87688E+01 1.56434E+01 0.00000E+00
 -1        69 9.51057E+01 3.09017E+01 0.00000E+00
 -1        70 8.91007E+01 4.53991E+01 0.00000E+00
 -1        71 8.09017E+01 5.87785E+01 0.00000E+00
 -1        72 7.07107E+01 7.07107E+01 0.00000E+00
 -1        73 5.87785E+01 8.09017E+01 0.00000E+00
 -1        74 4.53991E+01 8.91007E+01 0.00000E+00
 -1        75 3.09017E+01 9.51057E+01 0.00000E+00
 -1        76 1.56434E+01 9.87688E+01 0.00000E+00
 -1        77 9.96917E+01 7.84591E+00 0.00000E+00
 -1        78 9.72370E+01 2.33445E+01 0.00000E+00
 -1        79 9.23880E+01 3.82683E+01 0.00000E+00
 -1        80 8.52640E+01 5.22499E+01 0.00000E+00
 -1        81 7.60406E+01 6.49448E+01 0.00000E+00
 -1        82 6.49448E+01 7.60406E+01 0.00000E+00
 -1        83 5.22499E+01 8.52640E+01 0.00000E+00
 -1        84 3.82683E+01 9.23880E+01 0.00000E+00
 -1        85 2.33445E+01 9.72370E+01 0.00000E+00
 -1        86 7.84591E+00 9.96917E+01 0.00000E+00
 -1        87 5.97015E-15 9.75000E+01 0.00000E+00
 -1        88 5.81707E-15 9.50000E+01 0.00000E+00
 -1        89 5.66399E-15 9.25000E+01 0.00000E+00
 -1        90 5.51091E-15 9.00000E+01 0.00000E+00
 -1        91 5.35783E-15 8.75000E+01 0.00000E+00
 -1        92 5.20475E-15 8.50000E+01 0.00000E+00
 -1        93 5.05167E-15 8.25000E+01 0.00000E+00
 -1        94 4.89859E-15 8.00000E+01 0.00000E+00
 -1        95 4.74551E-15 7.75000E+01 0.00000E+00
 -1        96 4.59243E-15 7.50000E+01 0.00000E+00
 -1        97 4.43934E-15 7.25000E+01 0.00000E+00
 -1        98 4.28626E-15 7.00000E+01 0.00000E+00
 -1        99 4.13318E-15 6.75000E+01 0.00000E+00
 -1       100 3.98010E-15 6.50000E+01 0.00000E+00
 -1       101 3.82702E-15 6.25000E+01 0.00000E+00
 -1       102 3.67394E-15 6.00000E+01 0.00000E+00
 -1       103 3.52086E-15 5.75000E+01 0.00000E+00
 -1       104 3.36778E-15 5.50000E+01 0.00000E+00
 -1       105 3.21470E-15 5.25000E+01 0.00000E+00
 -1       106 3.06162E-15 5.00000E+01 0.00000E+00
 -1       107 2.90854E-15 4.75000E+01 0.00000E+00
 -1       108 2.75546E-15 4.50000E+01 0.00000E+00
 -1       109 2.60237E-15 4.25000E+01 0.00000E+00
 -1       110 2.44929E-15 4.00000E+01 0.00000E+00
 -1       111 2.29621E-15 3.75000E+01 0.00000E+00
 -1       112 2.14313E-15 3.50000E+01 0.00000E+00
 -1       113 1.99005E-15 3.25000E+01 0.00000E+00
 -1       114 1.83697E-15 3.00000E+01 0.00000E+00
 -1       115 1.68389E-15 2.75000E+01 0.00000E+00
 -1       116 6.04669E-15 9.87500E+01 0.00000E+00
 -1       117 5.89361E-15 9.62500E+01 0.00000E+00
 -1       118 5.74053E-15 9.37500E+01 0.00000E+00
 -1       119 5.58745E-15 9.12500E+01 0.00000E+00
 -1       120 5.43437E-15 8.87500E+01 0.00000E+00
 -1       121 5.28129E-15 8.62500E+01 0.00000E+00
 -1       122 5.12821E-15 8.37500E+01 0.00000E+00
 -1       123 4.97513E-15 8.12500E+01 0.00000E+00
 -1       124 4.82205E-15 7.87500E+01 0.00000E+00
 -1       125 4.66897E-15 7.62500E+01 0.00000E+00
 -1       126 4.51589E-15 7.37500E+01 0.00000E+00
 -1       127 4.36280E-15 7.12500E+01 0.00000E+00
 -1       128 4.20972E-15 6.87500E+01 0.00000E+00
 -1       129 4.05664E-15 6.62500E+01 0.00000E+00
 -1       130 3.90356E-15 6.37500E+01 0.00000E+00
 -1       131 3.75048E-15 6.12500E+01 0.00000E+00
 -1       132 3.59740E-15 5.87500E+01 0.00000E+00
 -1       133 3.44432E-15 5.62500E+01 0.00000E+00
 -1       134 3.29124E-15 5.37500E+01 0.00000E+00
 -1       135 3.13816E-15 5.12500E+01 0.00000E+00
 -1       136 2.98508E-15 4.87500E+01 0.00000E+00
 -1       137 2.83200E-15 4.62500E+01 0.00000E+00
 -1       138 2.67891E-15 4.37500E+01 0.00000E+00
 -1       139 2.52583E-15 4.12500E+01 0.00000E+00
 -1       140 2.37275E-15 3.87500E+01 0.00000E+00
 -1       141 2.21967E-15 3.62500E+01 0.00000E+00
 -1       142 2.06659E-15 3.37500E+01 0.00000E+00
 -1       143 1.91351E-15 3.12500E+01 0.00000E+00
 -1       144 1.76043E-15 2.87500E+01 0.00000E+00
 -1       145 1.60735E-15 2.62500E+01 0.00000E+00
 -1       146 3.91086E+00 2.46922E+01 0.00000E+00
 -1       147 7.72542E+00 2.37764E+01 0.00000E+00
 -1       148 1.13498E+01 2.22752E+01 0.00000E+00
 -1       149 1.46946E+01 2.02254E+01 0.00000E+00
 -1       150 1.76777E+01 1.76777E+01 0.00000E+00
 -1       151 2.02254E+01 1.46946E+01 0.00000E+00
 -1       152 2.22752E+01 1.13498E+01 0.00000E+00
 -1       153 2.37764E+01 7.72542E+00 0.00000E+00
 -1       154 2.46922E+01 3.91086E+00 0.00000E+00
 -1       155 1.96148E+00 2.49229E+01 0.00000E+00
 -1       156 5.83613E+00 2.43092E+01 0.00000E+00
 -1       157 9.56709E+00 2.30970E+01 0.00000E+00
 -1       158 1.30625E+01 2.13160E+01 0.00000E+00
 -1       159 1.62362E+01 1.90101E+01 0.00000E+00
 -1       160 1.90101E+01 1.62362E+01 0.00000E+00
 -1       161 2.13160E+01 1.30625E+01 0.00000E+00
 -1       162 2.30970E+01 9.56709E+00 0.00000E+00
 -1       163 2.43092E+01 5.83613E+00 0.00000E+00
 -1       164 2.49229E+01 1.96148E+00 0.00000E+00
 -1       165 2.75000E+01 0.00000E+00 1.00000E+01
 -1       166 3.00000E+01 0.00000E+00 1.00000E+01
 -1       167 3.25000E+01 0.00000E+00 1.00000E+01
 -1       168 3.50000E+01 0.00000E+00 1.00000E+01
 -1       169 3.75000E+01 0.00000E+00 1.00000E+01
 -1       170 4.00000E+01 0.00000E+00 1.00000E+01
 -1       171 4.25000E+01 0.00000E+00 1.00000E+01
 -1       172 4.50000E+01 0.00000E+00 1.00000E+01
 -1       173 4.75000E+01 0.00000E+00 1.00000E+01
 -1       174 5.00000E+01 0.00000E+00 1.00000E+01
 -1       175 5.25000E+01 0.00000E+00 1.00000E+01
 -1       176 5.50000E+01 0.00000E+00 1.00000E+01
 -1       177 5.75000E+01 0.00000E+00 1.00000E+01
 -1       178 6.00000E+01 0.00000E+00 1.00000E+01
 -1       179 6.25000E+01 0.00000E+00 1.00000E+01
 -1       180 6.50000E+01 0.00000E+00 1.00000E+01
 -1       181 6.75000E+01 0.00000E+00 1.00000E+01
 -1       182 7.00000E+01 0.00000E+00 1.00000E+01
 -1       183 7.25000E+01 0.00000E+00 1.00000E+01
 -1       184 7.50000E+01 0.00000E+00 1.00000E+01
 -1       185 7.75000E+01 0.00000E+00 1.00000E+01
 -1       186 8.00000E+01 0.00000E+00 1.00000E+01
 -1       187 8.25000E+01 0.00000E+00 1.00000E+01
 -1       188 8.50000E+01 0.00000E+00 1.00000E+01
 -1       189 8.75000E+01 0.00000E+00 1.00000E+01
 -1       190 9.00000E+01 0.00000E+00 1.00000E+01
 -1       191 9.25000E+01 0.00000E+00 1.00000E+01
 -1       192 9.50000E+01 0.00000E+00 1.00000E+01
 -1       193 9.75000E+01 0.00000E+00 1.00000E+01
 -1       194 2.62500E+01 0.00000E+00 1.00000E+01
 -1       195 2.87500E+01 0.00000E+00 1.00000E+01
 -1       196 3.12500E+01 0.00000E+00 1.00000E+01
 -1       197 3.37500E+01 0.00000E+00 1.00000E+01
 -1       198 3.62500E+01 0.00000E+00 1.00000E+01
 -1       199 3.87500E+01 0.00000E+00 1.00000E+01
 -1       200 4.12500E+01 0.00000E+00 1.00000E+01
 -1       201 4.37500E+01 0.00000E+00 1.00000E+01
 -1       202 4.62500E+01 0.00000E+00 1.00000E+01
 -1       203 4.87500E+01 0.00000E+00 1.00000E+01
 -1       204 5.12500E+01 0.00000E+00 1.00000E+01
 -1       205 5.37500E+01 0.00000E+00 1.00000E+01
 -1       206 5.62500E+01 0.00000E+00 1.00000E+01
 -1       207 5.87500E+01 0.00000E+00 1.00000E+01
 -1       208 6.12500E+01 0.00000E+00 1.00000E+01
 -1       209 6.37500E+01 0.00000E+00 1.00000E+01
 -1       210 6.62500E+01 0.00000E+00 1.00000E+01
 -1       211 6.87500E+01 0.00000E+00 1.00000E+01
 -1       212 7.12500E+01 0.00000E+00 1.00000E+01
 -1       213 7.37500E+01 0.00000E+00 1.00000E+01
 -1       214 7.62500E+01 0.00000E+00 1.00000E+01
 -1       215 7.87500E+01 0.00000E+00 1.00000E+01
 -1       216 8.12500E+01 0.00000E+00 1.00000E+01
 -1       217 8.37500E+01 0.00000E+00 1.00000E+01
 -1       218 8.62500E+01 0.00000E+00 1.00000E+01
 -1       219 8.87500E+01 0.00000E+00 1.00000E+01
 -1       220 9.12500E+01 0.00000E+00 1.00000E+01
 -1       221 9.37500E+01 0.00000E+00 1.00000E+01
 -1       222 9.62500E+01 0.00000E+00 1.00000E+01
 -1       223 9.87500E+01 0.00000E+00 1.00000E+01
 -1       224 9.87688E+01 1.56434E+01 1.00000E+01
 -1       225 9.51057E+01 3.09017E+01 1.00000E+01
 -1       226 8.91007E+01 4.53991E+01 1.00000E+01
 -1       227 8.09017E+01 5.87785E+01 1.00000E+01
 -1       228 7.07107E+01 7.07107E+01 1.00000E+01
 -1       229 5.87785E+01 8.09017E+01 1.00000E+01
 -1       230 4.53991E+01 8.91007E+01 1.00000E+01
 -1       231 3.09017E+01 9.51057E+01 1.00000E+01
 -1       232 1.56434E+01 9.87688E+01 1.00000E+01
 -1       233 9.96917E+01 7.84591E+00 1.00000E+01
 -1       234 9.72370E+01 2.33445E+01 1.00000E+01
 -1       235 9.23880E+01 3.82683E+01 1.00000E+01
 -1       236 8.52640E+01 5.22499E+01 1.00000E+01
 -1       237 7.60406E+01 6.49448E+01 1.00000E+01
 -1       238 6.49448E+01 7.60406E+01 1.00000E+01
 -1       239 5.22499E+01 8.52640E+01 1.00000E+01
 -1       240 3.82683E+01 9.23880E+01 1.00000E+01
 -1       241 2.33445E+01 9.72370E+01 1.00000E+01
 -1       242 7.84591E+00 9.96917E+01 1.00000E+01
 -1       243 5.97015E-15 9.75000E+01 1.00000E+01
 -1       244 5.81707E-15 9.50000E+01 1.00000E+01
 -1       245 5.66399E-15 9.25000E+01 1.00000E+01
 -1       246 5.51091E-15 9.00000E+01 1.00000E+01
 -1       247 5.35783E-15 8.75000E+01 1.00000E+01
 -1       248 5.20475E-15 8.50000E+01 1.00000E+01
 -1       249 5.05167E-15 8.25000E+01 1.00000E+01
 -1       250 4.89859E-15 8.00000E+01 1.00000E+01
 -1       251 4.74551E-15 7.75000E+01 1.00000E+01
 -1       252 4.59243E-15 7.50000E+01 1.00000E+01
 -1       253 4.43934E-15 7.25000E+01 1.00000E+01
 -1       254 4.28626E-15 7.00000E+01 1.00000E+01
 -1       255 4.13318E-15 6.75000E+01 1.00000E+01
 -1       256 3.98010E-15 6.50000E+01 1.00000E+01
 -1       257 3.82702E-15 6.25000E+01 1.00000E+01
 -1       258 3.67394E-15 6.00000E+01 1.00000E+01
 -1       259 3.52086E-15 5.75000E+01 1.00000E+01
 -1       260 3.36778E-15 5.50000E+01 1.00000E+01
 -1       261 3.21470E-15 5.25000E+01 1.00000E+01
 -1       262 3.06162E-15 5.00000E+01 1.00000E+01
 -1       263 2.90854E-15 4.75000E+01 1.00000E+01
 -1       264 2.75546E-15 4.50000E+01 1.00000E+01
 -1       265 2.60237E-15 4.25000E+01 1.00000E+01
 -1       266 2.44929E-15 4.00000E+01 1.00000E+01
 -1       267 2.29621E-15 3.75000E+01 1.00000E+01
 -1       268 2.14313E-15 3.50000E+01 1.00000E+01
 -1       269 1.99005E-15 3.25000E+01 1.00000E+01
 -1       270 1.83697E-15 3.00000E+01 1.00000E+01
 -1       271 1.68389E-15 2.75000E+01 1.00000E+01
 -1       272 6.04669E-15 9.87500E+01 1.00000E+01
 -1       273 5.89361E-15 9.62500E+01 1.00000E+01
 -1       274 5.74053E-15 9.37500E+01 1.00000E+01
 -1       275 5.58745E-15 9.12500E+01 1.00000E+01
 -1       276 5.43437E-15 8.87500E+01 1.00000E+01
 -1       277 5.28129E-15 8.62500E+01 1.00000E+01
 -1       278 5.12821E-15 8.37500E+01 1.00000E+01
 -1       279 4.97513E-15 8.12500E+01 1.00000E+01
 -1       280 4.82205E-15 7.87500E+01 1.00000E+01
 -1       281 4.66897E-15 7.62500E+01 1.00000E+01
 -1       282 4.51589E-15 7.37500E+01 1.00000E+01
 -1       283 4.36280E-15 7.12500E+01 1.00000E+01
 -1       284 4.20972E-15 6.87500E+01 1.00000E+01
 -1       285 4.05664E-15 6.62500E+01 1.00000E+01
 -1       286 3.90356E-15 6.37500E+01 1.00000E+01
 -1       287 3.75048E-15 6.12500E+01 1.00000E+01
 -1       288 3.59740E-15 5.87500E+01 1.00000E+01
 -1       289 3.44432E-15 5.62500E+01 1.00000E+01
 -1       290 3.29124E-15 5.37500E+01 1.00000E+01
 -1       291 3.13816E-15 5.12500E+01 1.00000E+01
 -1       292 2.98508E-15 4.87500E+01 1.00000E+01
 -1       293 2.83200E-15 4.62500E+01 1.00000E+01
 -1       294 2.67891E-15 4.37500E+01 1.00000E+01
 -1       295 2.52583E-15 4.12500E+01 1.00000E+01
 -1       296 2.37275E-15 3.87500E+01 1.00000E+01
 -1       297 2.21967E-15 3.62500E+01 1.00000E+01
 -1       298 2.06659E-15 3.37500E+01 1.00000E+01
 -1       299 1.91351E-15 3.12500E+01 1.00000E+01
 -1       300 1.76043E-15 2.87500E+01 1.00000E+01
 -1       301 1.60735E-15 2.62500E+01 1.00000E+01
 -1       302 3.91086E+00 2.46922E+01 1.00000E+01
 -1       303 7.72542E+00 2.37764E+01 1.00000E+01
 -1       304 1.13498E+01 2.22752E+01 1.00000E+01
 -1       305 1.46946E+01 2.02254E+01 1.00000E+01
 -1       306 1.76777E+01 1.76777E+01 1.00000E+01
 -1       307 2.02254E+01 1.46946E+01 1.00000E+01
 -1       308 2.22752E+01 1.13498E+01 1.00000E+01
 -1       309 2.37764E+01 7.72542E+00 1.00000E+01
 -1       310 2.46922E+01 3.91086E+00 1.00000E+01
 -1       311 1.96148E+00 2.49229E+01 1.00000E+01
 -1       312 5.83613E+00 2.43092E+01 1.00000E+01
 -1       313 9.56709E+00 2.30970E+01 1.00000E+01
 -1       314 1.30625E+01 2.13160E+01 1.00000E+01
 -1       315 1.62362E+01 1.90101E+01 1.00000E+01
 -1       316 1.90101E+01 1.62362E+01 1.00000E+01
 -1       317 2.13160E+01 1.30625E+01 1.00000E+01
 -1       318 2.30970E+01 9.56709E+00 1.00000E+01
 -1       319 2.43092E+01 5.83613E+00 1.00000E+01
 -1       320 2.49229E+01 1.96148E+00 1.00000E+01
 -1       321 2.50000E+01 0.00000E+00 9.09091E-01
 -1       322 2.50000E+01 0.00000E+00 1.81818E+00
 -1       323 2.50000E+01 0.00000E+00 2.72727E+00
 -1       324 2.50000E+01 0.00000E+00 3.63636E+00
 -1       325 2.50000E+01 0.00000E+00 4.54545E+00
 -1       326 2.50000E+01 0.00000E+00 5.45455E+00
 -1       327 2.50000E+01 0.00000E+00 6.36364E+00
 -1       328 2.50000E+01 0.00000E+00 7.27273E+00
 -1       329 2.50000E+01 0.00000E+00 8.18182E+00
 -1       330 2.50000E+01 0.00000E+00 9.09091E+00
 -1       331 2.50000E+01 0.00000E+00 4.54545E-01
 -1       332 2.50000E+01 0.00000E+00 1.36364E+00
 -1       333 2.50000E+01 0.00000E+00 2.27273E+00
 -1       334 2.50000E+01 0.00000E+00 3.18182E+00
 -1       335 2.50000E+01 0.00000E+00 4.09091E+00
 -1       336 2.50000E+01 0.00000E+00 5.00000E+00
 -1       337 2.50000E+01 0.00000E+00 5.90909E+00
 -1       338 2.50000E+01 0.00000E+00 6.81818E+00
 -1       339 2.50000E+01 0.00000E+00 7.72727E+00
 -1       340 2.50000E+01 0.00000E+00 8.63636E+00
 -1       341 2.50000E+01 0.00000E+00 9.54545E+00
 -1       342 1.00000E+02 0.00000E+00 9.09091E-01
 -1       343 1.00000E+02 0.00000E+00 1.81818E+00
 -1       344 1.00000E+02 0.00000E+00 2.72727E+00
 -1       345 1.00000E+02 0.00000E+00 3.63636E+00
 -1       346 1.00000E+02 0.00000E+00 4.54545E+00
 -1       347 1.00000E+02 0.00000E+00 5.45455E+00
 -1       348 1.00000E+02 0.00000E+00 6.36364E+00
 -1       349 1.00000E+02 0.00000E+00 7.27273E+00
 -1       350 1.00000E+02 0.00000E+00 8.18182E+00
 -1       351 1.00000E+02 0.00000E+00 9.09091E+00
 -1       352 1.00000E+02 0.00000E+00 4.54545E-01
 -1       353 1.00000E+02 0.00000E+00 1.36364E+00
 -1       354 1.00000E+02 0.00000E+00 2.27273E+00
 -1       355 1.00000E+02 0.00000E+00 3.18182E+00
 -1       356 1.00000E+02 0.00000E+00 4.09091E+00
 -1       357 1.00000E+02 0.00000E+00 5.00000E+00
 -1       358 1.00000E+02 0.00000E+00 5.90909E+00
 -1       359 1.00000E+02 0.00000E+00 6.81818E+00
 -1       360 1.00000E+02 0.00000E+00 7.72727E+00
 -1       361 1.00000E+02 0.00000E+00 8.63636E+00
 -1       362 1.00000E+02 0.00000E+00 9.54545E+00
 -1       363 6.12323E-15 1.00000E+02 9.09091E-01
 -1       364 6.12323E-15 1.00000E+02 1.81818E+00
 -1       365 6.12323E-15 1.00000E+02 2.72727E+00
 -1       366 6.12323E-15 1.00000E+02 3.63636E+00
 -1       367 6.12323E-15 1.00000E+02 4.54545E+00
 -1       368 6.12323E-15 1.00000E+02 5.45455E+00
 -1       369 6.12323E-15 1.00000E+02 6.36364E+00
 -1       370 6.12323E-15 1.00000E+02 7.27273E+00
 -1       371 6.12323E-15 1.00000E+02 8.18182E+00
 -1       372 6.12323E-15 1.00000E+02 9.09091E+00
 -1       373 6.12323E-15 1.00000E+02 4.54545E-01
 -1       374 6.12323E-15 1.00000E+02 1.36364E+00
 -1       375 6.12323E-15 1.00000E+02 2.27273E+00
 -1       376 6.12323E-15 1.00000E+02 3.18182E+00
 -1       377 6.12323E-15 1.00000E+02 4.09091E+00
 -1       378 6.12323E-15 1.00000E+02 5.00000E+00
 -1       379 6.12323E-15 1.00000E+02 5.90909E+00
 -1       380 6.12323E-15 1.00000E+02 6.81818E+00
 -1       381 6.12323E-15 1.00000E+02 7.72727E+00
 -1       382 6.12323E-15 1.00000E+02 8.63636E+00
 -1       383 6.12323E-15 1.00000E+02 9.54545E+00
 -1       384 1.53081E-15 2.50000E+01 9.09091E-01
 -1       385 1.53081E-15 2.50000E+01 1.81818E+00
 -1       386 1.53081E-15 2.50000E+01 2.72727E+00
 -1       387 1.53081E-15 2.50000E+01 3.63636E+00
 -1       388 1.53081E-15 2.50000E+01 4.54545E+00
 -1       389 1.53081E-15 2.50000E+01 5.45455E+00
 -1       390 1.53081E-15 2.50000E+01 6.36364E+00
 -1       391 1.53081E-15 2.50000E+01 7.27273E+00
 -1       392 1.53081E-15 2.50000E+01 8.18182E+00
 -1       393 1.53081E-15 2.50000E+01 9.09091E+00
 -1       394 1.53081E-15 2.50000E+01 4.54545E-01
 -1       395 1.53081E-15 2.50000E+01 1.36364E+00
 -1       396 1.53081E-15 2.50000E+01 2.27273E+00
 -1       397 1.53081E-15 2.50000E+01 3.18182E+00
 -1       398 1.53081E-15 2.50000E+01 4.09091E+00
 -1       399 1.53081E-15 2.50000E+01 5.00000E+00
 -1       400 1.53081E-15 2.50000E+01 5.90909E+00
 -1       401 1.53081E-15 2.50000E+01 6.81818E+00
 -1       402 1.53081E-15 2.50000E+01 7.72727E+00
 -1       403 1.53081E-15 2.50000E+01 8.63636E+00
 -1       404 1.53081E-15 2.50000E+01 9.54545E+00
 -1       405 2.71614E+01 4.30195E+00 0.00000E+00
 -1       406 2.61541E+01 8.49797E+00 0.00000E+00
 -1       407 2.45027E+01 1.24847E+01 0.00000E+00
 -1       408 2.22480E+01 1.61641E+01 0.00000E+00
 -1       409 1.94454E+01 1.94454E+01 0.00000E+00
 -1       410 1.61641E+01 2.22480E+01 0.00000E+00
 -1       411 1.24847E+01 2.45027E+01 0.00000E+00
 -1       412 8.49797E+00 2.61541E+01 0.00000E+00
 -1       413 4.30195E+00 2.71614E+01 0.00000E+00
 -1       414 2.96306E+01 4.69303E+00 0.00000E+00
 -1       415 2.85317E+01 9.27051E+00 0.00000E+00
 -1       416 2.67302E+01 1.36197E+01 0.00000E+00
 -1       417 2.42705E+01 1.76336E+01 0.00000E+00
 -1       418 2.12132E+01 2.12132E+01 0.00000E+00
 -1       419 1.76336E+01 2.42705E+01 0.00000E+00
 -1       420 1.36197E+01 2.67302E+01 0.00000E+00
 -1       421 9.27051E+00 2.85317E+01 0.00000E+00
 -1       422 4.69303E+00 2.96306E+01 0.00000E+00
 -1       423 3.20999E+01 5.08412E+00 0.00000E+00
 -1       424 3.09093E+01 1.00431E+01 0.00000E+00
 -1       425 2.89577E+01 1.47547E+01 0.00000E+00
 -1       426 2.62931E+01 1.91030E+01 0.00000E+00
 -1       427 2.29810E+01 2.29810E+01 0.00000E+00
 -1       428 1.91030E+01 2.62931E+01 0.00000E+00
 -1       429 1.47547E+01 2.89577E+01 0.00000E+00
 -1       430 1.00431E+01 3.09093E+01 0.00000E+00
 -1       431 5.08412E+00 3.20999E+01 0.00000E+00
 -1       432 3.45691E+01 5.47521E+00 0.00000E+00
 -1       433 3.32870E+01 1.08156E+01 0.00000E+00
 -1       434 3.11852E+01 1.58897E+01 0.00000E+00
 -1       435 2.83156E+01 2.05725E+01 0.00000E+00
 -1       436 2.47487E+01 2.47487E+01 0.00000E+00
 -1       437 2.05725E+01 2.83156E+01 0.00000E+00
 -1       438 1.58897E+01 3.11852E+01 0.00000E+00
 -1       439 1.08156E+01 3.32870E+01 0.00000E+00
 -1       440 5.47521E+00 3.45691E+01 0.00000E+00
 -1       441 3.70383E+01 5.86629E+00 0.00000E+00
 -1       442 3.56646E+01 1.15881E+01 0.00000E+00
 -1       443 3.34127E+01 1.70246E+01 0.00000E+00
 -1       444 3.03381E+01 2.20419E+01 0.00000E+00
 -1       445 2.65165E+01 2.65165E+01 0.00000E+00
 -1       446 2.20419E+01 3.03381E+01 0.00000E+00
 -1       447 1.70246E+01 3.34127E+01 0.00000E+00
 -1       448 1.15881E+01 3.56646E+01 0.00000E+00
 -1       449 5.86629E+00 3.70383E+01 0.00000E+00
 -1       450 3.95075E+01 6.25738E+00 0.00000E+00
 -1       451 3.80423E+01 1.23607E+01 0.00000E+00
 -1       452 3.56403E+01 1.81596E+01 0.00000E+00
 -1       453 3.23607E+01 2.35114E+01 0.00000E+00
 -1       454 2.82843E+01 2.82843E+01 0.00000E+00
 -1       455 2.35114E+01 3.23607E+01 0.00000E+00
 -1       456 1.81596E+01 3.56403E+01 0.00000E+00
 -1       457 1.23607E+01 3.80423E+01 0.00000E+00
 -1       458 6.25738E+00 3.95075E+01 0.00000E+00
 -1       459 4.19768E+01 6.64846E+00 0.00000E+00
 -1       460 4.04199E+01 1.31332E+01 0.00000E+00
 -1       461 3.78678E+01 1.92946E+01 0.00000E+00
 -1       462 3.43832E+01 2.49809E+01 0.00000E+00
 -1       463 3.00520E+01 3.00520E+01 0.00000E+00
 -1       464 2.49809E+01 3.43832E+01 0.00000E+00
 -1       465 1.92946E+01 3.78678E+01 0.00000E+00
 -1       466 1.31332E+01 4.04199E+01 0.00000E+00
 -1       467 6.64846E+00 4.19768E+01 0.00000E+00
 -1       468 4.44460E+01 7.03955E+00 0.00000E+00
 -1       469 4.27975E+01 1.39058E+01 0.00000E+00
 -1       470 4.00953E+01 2.04296E+01 0.00000E+00
 -1       471 3.64058E+01 2.64503E+01 0.00000E+00
 -1       472 3.18198E+01 3.18198E+01 0.00000E+00
 -1       473 2.64503E+01 3.64058E+01 0.00000E+00
 -1       474 2.04296E+01 4.00953E+01 0.00000E+00
 -1       475 1.39058E+01 4.27975E+01 0.00000E+00
 -1       476 7.03955E+00 4.44460E+01 0.00000E+00
 -1       477 4.69152E+01 7.43064E+00 0.00000E+00
 -1       478 4.51752E+01 1.46783E+01 0.00000E+00
 -1       479 4.23228E+01 2.15645E+01 0.00000E+00
 -1       480 3.84283E+01 2.79198E+01 0.00000E+00
 -1       481 3.35876E+01 3.35876E+01 0.00000E+00
 -1       482 2.79198E+01 3.84283E+01 0.00000E+00
 -1       483 2.15645E+01 4.23228E+01 0.00000E+00
 -1       484 1.46783E+01 4.51752E+01 0.00000E+00
 -1       485 7.43064E+00 4.69152E+01 0.00000E+00
 -1       486 4.93844E+01 7.82172E+00 0.00000E+00
 -1       487 4.75528E+01 1.54508E+01 0.00000E+00
 -1       488 4.45503E+01 2.26995E+01 0.00000E+00
 -1       489 4.04509E+01 2.93893E+01 0.00000E+00
 -1       490 3.53553E+01 3.53553E+01 0.00000E+00
 -1       491 2.93893E+01 4.04509E+01 0.00000E+00
 -1       492 2.26995E+01 4.45503E+01 0.00000E+00
 -1       493 1.54508E+01 4.75528E+01 0.00000E+00
 -1       494 7.82172E+00 4.93844E+01 0.00000E+00
 -1       495 5.18536E+01 8.21281E+00 0.00000E+00
 -1       496 4.99305E+01 1.62234E+01 0.00000E+00
 -1       497 4.67778E+01 2.38345E+01 0.00000E+00
 -1       498 4.24734E+01 3.08587E+01 0.00000E+00
 -1       499 3.71231E+01 3.71231E+01 0.00000E+00
 -1       500 3.08587E+01 4.24734E+01 0.00000E+00
 -1       501 2.38345E+01 4.67778E+01 0.00000E+00
 -1       502 1.62234E+01 4.99305E+01 0.00000E+00
 -1       503 8.21281E+00 5.18536E+01 0.00000E+00
 -1       504 5.43229E+01 8.60390E+00 0.00000E+00
 -1       505 5.23081E+01 1.69959E+01 0.00000E+00
 -1       506 4.90054E+01 2.49695E+01 0.00000E+00
 -1       507 4.44959E+01 3.23282E+01 0.00000E+00
 -1       508 3.88909E+01 3.88909E+01 0.00000E+00
 -1       509 3.23282E+01 4.44959E+01 0.00000E+00
 -1       510 2.49695E+01 4.90054E+01 0.00000E+00
 -1       511 1.69959E+01 5.23081E+01 0.00000E+00
 -1       512 8.60390E+00 5.43229E+01 0.00000E+00
 -1       513 5.67921E+01 8.99498E+00 0.00000E+00
 -1       514 5.46857E+01 1.77685E+01 0.00000E+00
 -1       515 5.12329E+01 2.61045E+01 0.00000E+00
 -1       516 4.65185E+01 3.37977E+01 0.00000E+00
 -1       517 4.06586E+01 4.06586E+01 0.00000E+00
 -1       518 3.37977E+01 4.65185E+01 0.00000E+00
 -1       519 2.61045E+01 5.12329E+01 0.00000E+00
 -1       520 1.77685E+01 5.46857E+01 0.00000E+00
 -1       521 8.99498E+00 5.67921E+01 0.00000E+00
 -1       522 5.92613E+01 9.38607E+00 0.00000E+00
 -1       523 5.70634E+01 1.85410E+01 0.00000E+00
 -1       524 5.34604E+01 2.72394E+01 0.00000E+00
 -1       525 4.85410E+01 3.52671E+01 0.00000E+00
 -1       526 4.24264E+01 4.24264E+01 0.00000E+00
 -1       527 3.52671E+01 4.85410E+01 0.00000E+00
 -1       528 2.72394E+01 5.34604E+01 0.00000E+00
 -1       529 1.85410E+01 5.70634E+01 0.00000E+00
 -1       530 9.38607E+00 5.92613E+01 0.00000E+00
 -1       531 6.17305E+01 9.77715E+00 0.00000E+00
 -1       532 5.94410E+01 1.93136E+01 0.00000E+00
 -1       533 5.56879E+01 2.83744E+01 0.00000E+00
 -1       534 5.05636E+01 3.67366E+01 0.00000E+00
 -1       535 4.41942E+01 4.41942E+01 0.00000E+00
 -1       536 3.67366E+01 5.05636E+01 0.00000E+00
 -1       537 2.83744E+01 5.56879E+01 0.00000E+00
 -1       538 1.93136E+01 5.94410E+01 0.00000E+00
 -1       539 9.77715E+00 6.17305E+01 0.00000E+00
 -1       540 6.41997E+01 1.01682E+01 0.00000E+00
 -1       541 6.18187E+01 2.00861E+01 0.00000E+00
 -1       542 5.79154E+01 2.95094E+01 0.00000E+00
 -1       543 5.25861E+01 3.82060E+01 0.00000E+00
 -1       544 4.59619E+01 4.59619E+01 0.00000E+00
 -1       545 3.82060E+01 5.25861E+01 0.00000E+00
 -1       546 2.95094E+01 5.79154E+01 0.00000E+00
 -1       547 2.00861E+01 6.18187E+01 0.00000E+00
 -1       548 1.01682E+01 6.41997E+01 0.00000E+00
 -1       549 6.66690E+01 1.05593E+01 0.00000E+00
 -1       550 6.41963E+01 2.08586E+01 0.00000E+00
 -1       551 6.01429E+01 3.06444E+01 0.00000E+00
 -1       552 5.46086E+01 3.96755E+01 0.00000E+00
 -1       553 4.77297E+01 4.77297E+01 0.00000E+00
 -1       554 3.96755E+01 5.46086E+01 0.00000E+00
 -1       555 3.06444E+01 6.01429E+01 0.00000E+00
 -1       556 2.08586E+01 6.41963E+01 0.00000E+00
 -1       557 1.05593E+01 6.66690E+01 0.00000E+00
 -1       558 6.91382E+01 1.09504E+01 0.00000E+00
 -1       559 6.65740E+01 2.16312E+01 0.00000E+00
 -1       560 6.23705E+01 3.17793E+01 0.00000E+00
 -1       561 5.66312E+01 4.11450E+01 0.00000E+00
 -1       562 4.94975E+01 4.94975E+01 0.00000E+00
 -1       563 4.11450E+01 5.66312E+01 0.00000E+00
 -1       564 3.17793E+01 6.23705E+01 0.00000E+00
 -1       565 2.16312E+01 6.65740E+01 0.00000E+00
 -1       566 1.09504E+01 6.91382E+01 0.00000E+00
 -1       567 7.16074E+01 1.13415E+01 0.00000E+00
 -1       568 6.89516E+01 2.24037E+01 0.00000E+00
 -1       569 6.45980E+01 3.29143E+01 0.00000E+00
 -1       570 5.86537E+01 4.26144E+01 0.00000E+00
 -1       571 5.12652E+01 5.12652E+01 0.00000E+00
 -1       572 4.26144E+01 5.86537E+01 0.00000E+00
 -1       573 3.29143E+01 6.45980E+01 0.00000E+00
 -1       574 2.24037E+01 6.89516E+01 0.00000E+00
 -1       575 1.13415E+01 7.16074E+01 0.00000E+00
 -1       576 7.40766E+01 1.17326E+01 0.00000E+00
 -1       577 7.13292E+01 2.31763E+01 0.00000E+00
 -1       578 6.68255E+01 3.40493E+01 0.00000E+00
 -1       579 6.06763E+01 4.40839E+01 0.00000E+00
 -1       580 5.30330E+01 5.30330E+01 0.00000E+00
 -1       581 4.40839E+01 6.06763E+01 0.00000E+00
 -1       582 3.40493E+01 6.68255E+01 0.00000E+00