    1C
    1U curvedbeam.inp                                                   
    1UUSER                                                              
    1UDATE              09.november.2021                                
    1UTIME              14:09:47                                        
    1UHOST                                                              
    1UPGM               CalculiX                                        
    1UVERSION           Version 2.17                             
    1UCOMPILETIME       Wed 13 Oct 2021 03:49:17 PM WEST                    
    1UDIR                                                               
    1UDBN                                                               
    1UMAT    1STEEL                                                     
    2C                          1452                                     1
 -1         1 0.00000E+00-5.08000E+01-9.52500E+00
 -1         2 0.00000E+00-1.52400E+02-9.52500E+00
 -1         3 9.33181E-15 1.52400E+02-9.52500E+00
 -1         4 3.11060E-15 5.08000E+01-9.52500E+00
 -1         5 0.00000E+00-5.08000E+01 9.52500E+00
 -1         6 0.00000E+00-1.52400E+02 9.52500E+00
 -1         7 9.33181E-15 1.52400E+02 9.52500E+00
 -1         8 3.11060E-15 5.08000E+01 9.52500E+00
 -1         9 0.00000E+00-6.09600E+01-9.52500E+00
 -1        10 0.00000E+00-7.11200E+01-9.52500E+00
 -1        11 0.00000E+00-8.12800E+01-9.52500E+00
 -1        12 0.00000E+00-9.14400E+01-9.52500E+00
 -1        13 0.00000E+00-1.01600E+02-9.52500E+00
 -1        14 0.00000E+00-1.11760E+02-9.52500E+00
 -1        15 0.00000E+00-1.21920E+02-9.52500E+00
 -1        16 0.00000E+00-1.32080E+02-9.52500E+00
 -1        17 0.00000E+00-1.42240E+02-9.52500E+00
 -1        18 4.70942E+01-1.44941E+02-9.52500E+00
 -1        19 8.95785E+01-1.23294E+02-9.52500E+00
 -1        20 1.23294E+02-8.95785E+01-9.52500E+00
 -1        21 1.44941E+02-4.70942E+01-9.52500E+00
 -1        22 1.52400E+02 6.95125E-07-9.52500E+00
 -1        23 1.44941E+02 4.70942E+01-9.52500E+00
 -1        24 1.23294E+02 8.95785E+01-9.52500E+00
 -1        25 8.95785E+01 1.23294E+02-9.52500E+00
 -1        26 4.70942E+01 1.44941E+02-9.52500E+00
 -1        27 8.70969E-15 1.42240E+02-9.52500E+00
 -1        28 8.08757E-15 1.32080E+02-9.52500E+00
 -1        29 7.46545E-15 1.21920E+02-9.52500E+00
 -1        30 6.84333E-15 1.11760E+02-9.52500E+00
 -1        31 6.22121E-15 1.01600E+02-9.52500E+00
 -1        32 5.59909E-15 9.14400E+01-9.52500E+00
 -1        33 4.97696E-15 8.12800E+01-9.52500E+00
 -1        34 4.35484E-15 7.11200E+01-9.52500E+00
 -1        35 3.73272E-15 6.09600E+01-9.52500E+00
 -1        36 1.56981E+01-4.83137E+01-9.52500E+00
 -1        37 2.98595E+01-4.10981E+01-9.52500E+00
 -1        38 4.10981E+01-2.98595E+01-9.52500E+00
 -1        39 4.83137E+01-1.56981E+01-9.52500E+00
 -1        40 5.08000E+01 2.39247E-07-9.52500E+00
 -1        41 4.83137E+01 1.56981E+01-9.52500E+00
 -1        42 4.10981E+01 2.98595E+01-9.52500E+00
 -1        43 2.98595E+01 4.10981E+01-9.52500E+00
 -1        44 1.56981E+01 4.83137E+01-9.52500E+00
 -1        45 0.00000E+00-6.09600E+01 9.52500E+00
 -1        46 0.00000E+00-7.11200E+01 9.52500E+00
 -1        47 0.00000E+00-8.12800E+01 9.52500E+00
 -1        48 0.00000E+00-9.14400E+01 9.52500E+00
 -1        49 0.00000E+00-1.01600E+02 9.52500E+00
 -1        50 0.00000E+00-1.11760E+02 9.52500E+00
 -1        51 0.00000E+00-1.21920E+02 9.52500E+00
 -1        52 0.00000E+00-1.32080E+02 9.52500E+00
 -1        53 0.00000E+00-1.42240E+02 9.52500E+00
 -1        54 4.70942E+01-1.44941E+02 9.52500E+00
 -1        55 8.95785E+01-1.23294E+02 9.52500E+00
 -1        56 1.23294E+02-8.95785E+01 9.52500E+00
 -1        57 1.44941E+02-4.70942E+01 9.52500E+00
 -1        58 1.52400E+02 6.95125E-07 9.52500E+00
 -1        59 1.44941E+02 4.70942E+01 9.52500E+00
 -1        60 1.23294E+02 8.95785E+01 9.52500E+00
 -1        61 8.95785E+01 1.23294E+02 9.52500E+00
 -1        62 4.70942E+01 1.44941E+02 9.52500E+00
 -1        63 8.70969E-15 1.42240E+02 9.52500E+00
 -1        64 8.08757E-15 1.32080E+02 9.52500E+00
 -1        65 7.46545E-15 1.21920E+02 9.52500E+00
 -1        66 6.84333E-15 1.11760E+02 9.52500E+00
 -1        67 6.22121E-15 1.01600E+02 9.52500E+00
 -1        68 5.59909E-15 9.14400E+01 9.52500E+00
 -1        69 4.97696E-15 8.12800E+01 9.52500E+00
 -1        70 4.35484E-15 7.11200E+01 9.52500E+00
 -1        71 3.73272E-15 6.09600E+01 9.52500E+00
 -1        72 1.56981E+01 4.83137E+01 9.52500E+00
 -1        73 2.98595E+01 4.10981E+01 9.52500E+00
 -1        74 4.10981E+01 2.98595E+01 9.52500E+00
 -1        75 4.83137E+01 1.56981E+01 9.52500E+00
 -1        76 5.08000E+01 2.39247E-07 9.52500E+00
 -1        77 4.83137E+01-1.56981E+01 9.52500E+00
 -1        78 4.10981E+01-2.98595E+01 9.52500E+00
 -1        79 2.98595E+01-4.10981E+01 9.52500E+00
 -1        80 1.56981E+01-4.83137E+01 9.52500E+00
 -1        81 0.00000E+00-5.08000E+01-7.79318E+00
 -1        82 0.00000E+00-5.08000E+01-6.06136E+00
 -1        83 0.00000E+00-5.08000E+01-4.32955E+00
 -1        84 0.00000E+00-5.08000E+01-2.59773E+00
 -1        85 0.00000E+00-5.08000E+01-8.65909E-01
 -1        86 0.00000E+00-5.08000E+01 8.65909E-01
 -1        87 0.00000E+00-5.08000E+01 2.59773E+00
 -1        88 0.00000E+00-5.08000E+01 4.32955E+00
 -1        89 0.00000E+00-5.08000E+01 6.06136E+00
 -1        90 0.00000E+00-5.08000E+01 7.79318E+00
 -1        91 0.00000E+00-1.52400E+02-7.79318E+00
 -1        92 0.00000E+00-1.52400E+02-6.06136E+00
 -1        93 0.00000E+00-1.52400E+02-4.32955E+00
 -1        94 0.00000E+00-1.52400E+02-2.59773E+00
 -1        95 0.00000E+00-1.52400E+02-8.65909E-01
 -1        96 0.00000E+00-1.52400E+02 8.65909E-01
 -1        97 0.00000E+00-1.52400E+02 2.59773E+00
 -1        98 0.00000E+00-1.52400E+02 4.32955E+00
 -1        99 0.00000E+00-1.52400E+02 6.06136E+00
 -1       100 0.00000E+00-1.52400E+02 7.79318E+00
 -1       101 9.33181E-15 1.52400E+02-7.79318E+00
 -1       102 9.33181E-15 1.52400E+02-6.06136E+00
 -1       103 9.33181E-15 1.52400E+02-4.32955E+00
 -1       104 9.33181E-15 1.52400E+02-2.59773E+00
 -1       105 9.33181E-15 1.52400E+02-8.65909E-01
 -1       106 9.33181E-15 1.52400E+02 8.65909E-01
 -1       107 9.33181E-15 1.52400E+02 2.59773E+00
 -1       108 9.33181E-15 1.52400E+02 4.32955E+00
 -1       109 9.33181E-15 1.52400E+02 6.06136E+00
 -1       110 9.33181E-15 1.52400E+02 7.79318E+00
 -1       111 3.11060E-15 5.08000E+01-7.79318E+00
 -1       112 3.11060E-15 5.08000E+01-6.06136E+00
 -1       113 3.11060E-15 5.08000E+01-4.32955E+00
 -1       114 3.11060E-15 5.08000E+01-2.59773E+00
 -1       115 3.11060E-15 5.08000E+01-8.65909E-01
 -1       116 3.11060E-15 5.08000E+01 8.65909E-01
 -1       117 3.11060E-15 5.08000E+01 2.59773E+00
 -1       118 3.11060E-15 5.08000E+01 4.32955E+00
 -1       119 3.11060E-15 5.08000E+01 6.06136E+00
 -1       120 3.11060E-15 5.08000E+01 7.79318E+00
 -1       121 1.88377E+01-5.79764E+01-9.52500E+00
 -1       122 3.58314E+01-4.93177E+01-9.52500E+00
 -1       123 4.93177E+01-3.58314E+01-9.52500E+00
 -1       124 5.79764E+01-1.88377E+01-9.52500E+00
 -1       125 6.09600E+01 2.84858E-07-9.52500E+00
 -1       126 5.79764E+01 1.88377E+01-9.52500E+00
 -1       127 4.93177E+01 3.58314E+01-9.52500E+00
 -1       128 3.58314E+01 4.93177E+01-9.52500E+00
 -1       129 1.88377E+01 5.79764E+01-9.52500E+00
 -1       130 2.19773E+01-6.76391E+01-9.52500E+00
 -1       131 4.18033E+01-5.75373E+01-9.52500E+00
 -1       132 5.75373E+01-4.18033E+01-9.52500E+00
 -1       133 6.76391E+01-2.19773E+01-9.52500E+00
 -1       134 7.11200E+01 3.30477E-07-9.52500E+00
 -1       135 6.76391E+01 2.19773E+01-9.52500E+00
 -1       136 5.75373E+01 4.18033E+01-9.52500E+00
 -1       137 4.18033E+01 5.75373E+01-9.52500E+00
 -1       138 2.19773E+01 6.76391E+01-9.52500E+00
 -1       139 2.51169E+01-7.73019E+01-9.52500E+00
 -1       140 4.77752E+01-6.57569E+01-9.52500E+00
 -1       141 6.57569E+01-4.77752E+01-9.52500E+00
 -1       142 7.73019E+01-2.51169E+01-9.52500E+00
 -1       143 8.12800E+01 3.76091E-07-9.52500E+00
 -1       144 7.73019E+01 2.51169E+01-9.52500E+00
 -1       145 6.57569E+01 4.77752E+01-9.52500E+00
 -1       146 4.77752E+01 6.57569E+01-9.52500E+00
 -1       147 2.51169E+01 7.73019E+01-9.52500E+00
 -1       148 2.82565E+01-8.69646E+01-9.52500E+00
 -1       149 5.37471E+01-7.39765E+01-9.52500E+00
 -1       150 7.39765E+01-5.37471E+01-9.52500E+00
 -1       151 8.69646E+01-2.82565E+01-9.52500E+00
 -1       152 9.14400E+01 4.21710E-07-9.52500E+00
 -1       153 8.69646E+01 2.82565E+01-9.52500E+00
 -1       154 7.39765E+01 5.37471E+01-9.52500E+00
 -1       155 5.37471E+01 7.39765E+01-9.52500E+00
 -1       156 2.82565E+01 8.69646E+01-9.52500E+00
 -1       157 3.13961E+01-9.66273E+01-9.52500E+00
 -1       158 5.97190E+01-8.21961E+01-9.52500E+00
 -1       159 8.21961E+01-5.97190E+01-9.52500E+00
 -1       160 9.66273E+01-3.13961E+01-9.52500E+00
 -1       161 1.01600E+02 4.67325E-07-9.52500E+00
 -1       162 9.66273E+01 3.13961E+01-9.52500E+00
 -1       163 8.21961E+01 5.97190E+01-9.52500E+00
 -1       164 5.97190E+01 8.21961E+01-9.52500E+00
 -1       165 3.13961E+01 9.66273E+01-9.52500E+00
 -1       166 3.45357E+01-1.06290E+02-9.52500E+00
 -1       167 6.56909E+01-9.04157E+01-9.52500E+00
 -1       168 9.04157E+01-6.56909E+01-9.52500E+00
 -1       169 1.06290E+02-3.45357E+01-9.52500E+00
 -1       170 1.11760E+02 5.12885E-07-9.52500E+00
 -1       171 1.06290E+02 3.45357E+01-9.52500E+00
 -1       172 9.04157E+01 6.56909E+01-9.52500E+00
 -1       173 6.56909E+01 9.04157E+01-9.52500E+00
 -1       174 3.45357E+01 1.06290E+02-9.52500E+00
 -1       175 3.76754E+01-1.15953E+02-9.52500E+00
 -1       176 7.16628E+01-9.86354E+01-9.52500E+00
 -1       177 9.86354E+01-7.16628E+01-9.52500E+00
 -1       178 1.15953E+02-3.76754E+01-9.52500E+00
 -1       179 1.21920E+02 5.58445E-07-9.52500E+00
 -1       180 1.15953E+02 3.76754E+01-9.52500E+00
 -1       181 9.86354E+01 7.16628E+01-9.52500E+00
 -1       182 7.16628E+01 9.86354E+01-9.52500E+00
 -1       183 3.76754E+01 1.15953E+02-9.52500E+00
 -1       184 4.08150E+01-1.25616E+02-9.52500E+00
 -1       185 7.76347E+01-1.06855E+02-9.52500E+00
 -1       186 1.06855E+02-7.76347E+01-9.52500E+00
 -1       187 1.25616E+02-4.08150E+01-9.52500E+00
 -1       188 1.32080E+02 6.04011E-07-9.52500E+00
 -1       189 1.25616E+02 4.08150E+01-9.52500E+00
 -1       190 1.06855E+02 7.76347E+01-9.52500E+00
 -1       191 7.76347E+01 1.06855E+02-9.52500E+00
 -1       192 4.08150E+01 1.25616E+02-9.52500E+00
 -1       193 4.39546E+01-1.35278E+02-9.52500E+00
 -1       194 8.36066E+01-1.15075E+02-9.52500E+00
 -1       195 1.15075E+02-8.36066E+01-9.52500E+00
 -1       196 1.35278E+02-4.39546E+01-9.52500E+00
 -1       197 1.42240E+02 6.49564E-07-9.52500E+00
 -1       198 1.35278E+02 4.39546E+01-9.52500E+00
 -1       199 1.15075E+02 8.36066E+01-9.52500E+00
 -1       200 8.36066E+01 1.15075E+02-9.52500E+00
 -1       201 4.39546E+01 1.35278E+02-9.52500E+00
 -1       202 0.00000E+00-6.09600E+01-7.79318E+00
 -1       203 0.00000E+00-6.09600E+01-6.06136E+00
 -1       204 0.00000E+00-6.09600E+01-4.32955E+00
 -1       205 0.00000E+00-6.09600E+01-2.59773E+00
 -1       206 0.00000E+00-6.09600E+01-8.65909E-01
 -1       207 0.00000E+00-6.09600E+01 8.65909E-01
 -1       208 0.00000E+00-6.09600E+01 2.59773E+00
 -1       209 0.00000E+00-6.09600E+01 4.32955E+00
 -1       210 0.00000E+00-6.09600E+01 6.06136E+00
 -1       211 0.00000E+00-6.09600E+01 7.79318E+00
 -1       212 0.00000E+00-7.11200E+01-7.79318E+00
 -1       213 0.00000E+00-7.11200E+01-6.06136E+00
 -1       214 0.00000E+00-7.11200E+01-4.32955E+00
 -1       215 0.00000E+00-7.11200E+01-2.59773E+00
 -1       216 0.00000E+00-7.11200E+01-8.65909E-01
 -1       217 0.00000E+00-7.11200E+01 8.65909E-01
 -1       218 0.00000E+00-7.11200E+01 2.59773E+00
 -1       219 0.00000E+00-7.11200E+01 4.32955E+00
 -1       220 0.00000E+00-7.11200E+01 6.06136E+00
 -1       221 0.00000E+00-7.11200E+01 7.79318E+00
 -1       222 0.00000E+00-8.12800E+01-7.79318E+00
 -1       223 0.00000E+00-8.12800E+01-6.06136E+00
 -1       224 0.00000E+00-8.12800E+01-4.32955E+00
 -1       225 0.00000E+00-8.12800E+01-2.59773E+00
 -1       226 0.00000E+00-8.12800E+01-8.65909E-01
 -1       227 0.00000E+00-8.12800E+01 8.65909E-01
 -1       228 0.00000E+00-8.12800E+01 2.59773E+00
 -1       229 0.00000E+00-8.12800E+01 4.32955E+00
 -1       230 0.00000E+00-8.12800E+01 6.06136E+00
 -1       231 0.00000E+00-8.12800E+01 7.79318E+00
 -1       232 0.00000E+00-9.14400E+01-7.79318E+00
 -1       233 0.00000E+00-9.14400E+01-6.06136E+00
 -1       234 0.00000E+00-9.14400E+01-4.32955E+00
 -1       235 0.00000E+00-9.14400E+01-2.59773E+00
 -1       236 0.00000E+00-9.14400E+01-8.65909E-01
 -1       237 0.00000E+00-9.14400E+01 8.65909E-01
 -1       238 0.00000E+00-9.14400E+01 2.59773E+00
 -1       239 0.00000E+00-9.14400E+01 4.32955E+00
 -1       240 0.00000E+00-9.14400E+01 6.06136E+00
 -1       241 0.00000E+00-9.14400E+01 7.79318E+00
 -1       242 0.00000E+00-1.01600E+02-7.79318E+00
 -1       243 0.00000E+00-1.01600E+02-6.06136E+00
 -1       244 0.00000E+00-1.01600E+02-4.32955E+00
 -1       245 0.00000E+00-1.01600E+02-2.59773E+00
 -1       246 0.00000E+00-1.01600E+02-8.65909E-01
 -1       247 0.00000E+00-1.01600E+02 8.65909E-01
 -1       248 0.00000E+00-1.01600E+02 2.59773E+00
 -1       249 0.00000E+00-1.01600E+02 4.32955E+00
 -1       250 0.00000E+00-1.01600E+02 6.06136E+00
 -1       251 0.00000E+00-1.01600E+02 7.79318E+00
 -1       252 0.00000E+00-1.11760E+02-7.79318E+00
 -1       253 0.00000E+00-1.11760E+02-6.06136E+00
 -1       254 0.00000E+00-1.11760E+02-4.32955E+00
 -1       255 0.00000E+00-1.11760E+02-2.59773E+00
 -1       256 0.00000E+00-1.11760E+02-8.65909E-01
 -1       257 0.00000E+00-1.11760E+02 8.65909E-01
 -1       258 0.00000E+00-1.11760E+02 2.59773E+00
 -1       259 0.00000E+00-1.11760E+02 4.32955E+00
 -1       260 0.00000E+00-1.11760E+02 6.06136E+00
 -1       261 0.00000E+00-1.11760E+02 7.79318E+00
 -1       262 0.00000E+00-1.21920E+02-7.79318E+00
 -1       263 0.00000E+00-1.21920E+02-6.06136E+00
 -1       264 0.00000E+00-1.21920E+02-4.32955E+00
 -1       265 0.00000E+00-1.21920E+02-2.59773E+00
 -1       266 0.00000E+00-1.21920E+02-8.65909E-01
 -1       267 0.00000E+00-1.21920E+02 8.65909E-01
 -1       268 0.00000E+00-1.21920E+02 2.59773E+00
 -1       269 0.00000E+00-1.21920E+02 4.32955E+00
 -1       270 0.00000E+00-1.21920E+02 6.06136E+00
 -1       271 0.00000E+00-1.21920E+02 7.79318E+00
 -1       272 0.00000E+00-1.32080E+02-7.79318E+00
 -1       273 0.00000E+00-1.32080E+02-6.06136E+00
 -1       274 0.00000E+00-1.32080E+02-4.32955E+00
 -1       275 0.00000E+00-1.32080E+02-2.59773E+00
 -1       276 0.00000E+00-1.32080E+02-8.65909E-01
 -1       277 0.00000E+00-1.32080E+02 8.65909E-01
 -1       278 0.00000E+00-1.32080E+02 2.59773E+00
 -1       279 0.00000E+00-1.32080E+02 4.32955E+00
 -1       280 0.00000E+00-1.32080E+02 6.06136E+00
 -1       281 0.00000E+00-1.32080E+02 7.79318E+00
 -1       282 0.00000E+00-1.42240E+02-7.79318E+00
 -1       283 0.00000E+00-1.42240E+02-6.06136E+00
 -1       284 0.00000E+00-1.42240E+02-4.32955E+00
 -1       285 0.00000E+00-1.42240E+02-2.59773E+00
 -1       286 0.00000E+00-1.42240E+02-8.65909E-01
 -1       287 0.00000E+00-1.42240E+02 8.65909E-01
 -1       288 0.00000E+00-1.42240E+02 2.59773E+00
 -1       289 0.00000E+00-1.42240E+02 4.32955E+00
 -1       290 0.00000E+00-1.42240E+02 6.06136E+00
 -1       291 0.00000E+00-1.42240E+02 7.79318E+00
 -1       292 4.70942E+01-1.44941E+02-7.79318E+00
 -1       293 4.70942E+01-1.44941E+02-6.06136E+00
 -1       294 4.70942E+01-1.44941E+02-4.32955E+00
 -1       295 4.70942E+01-1.44941E+02-2.59773E+00
 -1       296 4.70942E+01-1.44941E+02-8.65909E-01
 -1       297 4.70942E+01-1.44941E+02 8.65909E-01
 -1       298 4.70942E+01-1.44941E+02 2.59773E+00
 -1       299 4.70942E+01-1.44941E+02 4.32955E+00
 -1       300 4.70942E+01-1.44941E+02 6.06136E+00
 -1       301 4.70942E+01-1.44941E+02 7.79318E+00
 -1       302 8.95785E+01-1.23294E+02-7.79318E+00
 -1       303 8.95785E+01-1.23294E+02-6.06136E+00
 -1       304 8.95785E+01-1.23294E+02-4.32955E+00
 -1       305 8.95785E+01-1.23294E+02-2.59773E+00
 -1       306 8.95785E+01-1.23294E+02-8.65909E-01
 -1       307 8.95785E+01-1.23294E+02 8.65909E-01
 -1       308 8.95785E+01-1.23294E+02 2.59773E+00
 -1       309 8.95785E+01-1.23294E+02 4.32955E+00
 -1       310 8.95785E+01-1.23294E+02 6.06136E+00
 -1       311 8.95785E+01-1.23294E+02 7.79318E+00
 -1       312 1.23294E+02-8.95785E+01-7.79318E+00
 -1       313 1.23294E+02-8.95785E+01-6.06136E+00
 -1       314 1.23294E+02-8.95785E+01-4.32955E+00
 -1       315 1.23294E+02-8.95785E+01-2.59773E+00
 -1       316 1.23294E+02-8.95785E+01-8.65909E-01
 -1       317 1.23294E+02-8.95785E+01 8.65909E-01
 -1       318 1.23294E+02-8.95785E+01 2.59773E+00
 -1       319 1.23294E+02-8.95785E+01 4.32955E+00
 -1       320 1.23294E+02-8.95785E+01 6.06136E+00
 -1       321 1.23294E+02-8.95785E+01 7.79318E+00
 -1       322 1.44941E+02-4.70942E+01-7.79318E+00
 -1       323 1.44941E+02-4.70942E+01-6.06136E+00
 -1       324 1.44941E+02-4.70942E+01-4.32955E+00
 -1       325 1.44941E+02-4.70942E+01-2.59773E+00
 -1       326 1.44941E+02-4.70942E+01-8.65909E-01
 -1       327 1.44941E+02-4.70942E+01 8.65909E-01
 -1       328 1.44941E+02-4.70942E+01 2.59773E+00
 -1       329 1.44941E+02-4.70942E+01 4.32955E+00
 -1       330 1.44941E+02-4.70942E+01 6.06136E+00
 -1       331 1.44941E+02-4.70942E+01 7.79318E+00
 -1       332 1.52400E+02 6.95125E-07-7.79318E+00
 -1       333 1.52400E+02 6.95125E-07-6.06136E+00
 -1       334 1.52400E+02 6.95125E-07-4.32955E+00
 -1       335 1.52400E+02 6.95125E-07-2.59773E+00
 -1       336 1.52400E+02 6.95125E-07-8.65909E-01
 -1       337 1.52400E+02 6.95125E-07 8.65909E-01
 -1       338 1.52400E+02 6.95125E-07 2.59773E+00
 -1       339 1.52400E+02 6.95125E-07 4.32955E+00
 -1       340 1.52400E+02 6.95125E-07 6.06136E+00
 -1       341 1.52400E+02 6.95125E-07 7.79318E+00
 -1       342 1.44941E+02 4.70942E+01-7.79318E+00
 -1       343 1.44941E+02 4.70942E+01-6.06136E+00
 -1       344 1.44941E+02 4.70942E+01-4.32955E+00
 -1       345 1.44941E+02 4.70942E+01-2.59773E+00
 -1       346 1.44941E+02 4.70942E+01-8.65909E-01
 -1       347 1.44941E+02 4.70942E+01 8.65909E-01
 -1       348 1.44941E+02 4.70942E+01 2.59773E+00
 -1       349 1.44941E+02 4.70942E+01 4.32955E+00
 -1       350 1.44941E+02 4.70942E+01 6.06136E+00
 -1       351 1.44941E+02 4.70942E+01 7.79318E+00
 -1       352 1.23294E+02 8.95785E+01-7.79318E+00
 -1       353 1.23294E+02 8.95785E+01-6.06136E+00
 -1       354 1.23294E+02 8.95785E+01-4.32955E+00
 -1       355 1.23294E+02 8.95785E+01-2.59773E+00
 -1       356 1.23294E+02 8.95785E+01-8.65909E-01
 -1       357 1.23294E+02 8.95785E+01 8.65909E-01
 -1       358 1.23294E+02 8.95785E+01 2.59773E+00
 -1       359 1.23294E+02 8.95785E+01 4.32955E+00
 -1       360 1.23294E+02 8.95785E+01 6.06136E+00
 -1       361 1.23294E+02 8.95785E+01 7.79318E+00
 -1       362 8.95785E+01 1.23294E+02-7.79318E+00
 -1       363 8.95785E+01 1.23294E+02-6.06136E+00
 -1       364 8.95785E+01 1.23294E+02-4.32955E+00
 -1       365 8.95785E+01 1.23294E+02-2.59773E+00
 -1       366 8.95785E+01 1.23294E+02-8.65909E-01
 -1       367 8.95785E+01 1.23294E+02 8.65909E-01
 -1       368 8.95785E+01 1.23294E+02 2.59773E+00
 -1       369 8.95785E+01 1.23294E+02 4.32955E+00
 -1       370 8.95785E+01 1.23294E+02 6.06136E+00
 -1       371 8.95785E+01 1.23294E+02 7.79318E+00
 -1       372 4.70942E+01 1.44941E+02-7.79318E+00
 -1       373 4.70942E+01 1.44941E+02-6.06136E+00
 -1       374 4.70942E+01 1.44941E+02-4.32955E+00
 -1       375 4.70942E+01 1.44941E+02-2.59773E+00
 -1       376 4.70942E+01 1.44941E+02-8.65909E-01
 -1       377 4.70942E+01 1.44941E+02 8.65909E-01
 -1       378 4.70942E+01 1.44941E+02 2.59773E+00
 -1       379 4.70942E+01 1.44941E+02 4.32955E+00
 -1       380 4.70942E+01 1.44941E+02 6.06136E+00
 -1       381 4.70942E+01 1.44941E+02 7.79318E+00
 -1       382 8.70969E-15 1.42240E+02-7.79318E+00
 -1       383 8.70969E-15 1.42240E+02-6.06136E+00
 -1       384 8.70969E-15 1.42240E+02-4.32955E+00
 -1       385 8.70969E-15 1.42240E+02-2.59773E+00
 -1       386 8.70969E-15 1.42240E+02-8.65909E-01
 -1       387 8.70969E-15 1.42240E+02 8.65909E-01
 -1       388 8.70969E-15 1.42240E+02 2.59773E+00
 -1       389 8.70969E-15 1.42240E+02 4.32955E+00
 -1       390 8.70969E-15 1.42240E+02 6.06136E+00
 -1       391 8.70969E-15 1.42240E+02 7.79318E+00
 -1       392 8.08757E-15 1.32080E+02-7.79318E+00
 -1       393 8.08757E-15 1.32080E+02-6.06136E+00
 -1       394 8.08757E-15 1.32080E+02-4.32955E+00
 -1       395 8.08757E-15 1.32080E+02-2.59773E+00
 -1       396 8.08757E-15 1.32080E+02-8.65909E-01
 -1       397 8.08757E-15 1.32080E+02 8.65909E-01
 -1       398 8.08757E-15 1.32080E+02 2.59773E+00
 -1       399 8.08757E-15 1.32080E+02 4.32955E+00
 -1       400 8.08757E-15 1.32080E+02 6.06136E+00
 -1       401 8.08757E-15 1.32080E+02 7.79318E+00
 -1       402 7.46545E-15 1.21920E+02-7.79318E+00
 -1       403 7.46545E-15 1.21920E+02-6.06136E+00
 -1       404 7.46545E-15 1.21920E+02-4.32955E+00
 -1       405 7.46545E-15 1.21920E+02-2.59773E+00
 -1       406 7.46545E-15 1.21920E+02-8.65909E-01
 -1       407 7.46545E-15 1.21920E+02 8.65909E-01
 -1       408 7.46545E-15 1.21920E+02 2.59773E+00
 -1       409 7.46545E-15 1.21920E+02 4.32955E+00
 -1       410 7.46545E-15 1.21920E+02 6.06136E+00
 -1       411 7.46545E-15 1.21920E+02 7.79318E+00
 -1       412 6.84333E-15 1.11760E+02-7.79318E+00
 -1       413 6.84333E-15 1.11760E+02-6.06136E+00
 -1       414 6.84333E-15 1.11760E+02-4.32955E+00
 -1       415 6.84333E-15 1.11760E+02-2.59773E+00
 -1       416 6.84333E-15 1.11760E+02-8.65909E-01
 -1       417 6.84333E-15 1.11760E+02 8.65909E-01
 -1       418 6.84333E-15 1.11760E+02 2.59773E+00
 -1       419 6.84333E-15 1.11760E+02 4.32955E+00
 -1       420 6.84333E-15 1.11760E+02 6.06136E+00
 -1       421 6.84333E-15 1.11760E+02 7.79318E+00
 -1       422 6.22121E-15 1.01600E+02-7.79318E+00
 -1       423 6.22121E-15 1.01600E+02-6.06136E+00
 -1       424 6.22121E-15 1.01600E+02-4.32955E+00
 -1       425 6.22121E-15 1.01600E+02-2.59773E+00
 -1       426 6.22121E-15 1.01600E+02-8.65909E-01
 -1       427 6.22121E-15 1.01600E+02 8.65909E-01
 -1       428 6.22121E-15 1.01600E+02 2.59773E+00
 -1       429 6.22121E-15 1.01600E+02 4.32955E+00
 -1       430 6.22121E-15 1.01600E+02 6.06136E+00
 -1       431 6.22121E-15 1.01600E+02 7.79318E+00
 -1       432 5.59909E-15 9.14400E+01-7.79318E+00
 -1       433 5.59909E-15 9.14400E+01-6.06136E+00
 -1       434 5.59909E-15 9.14400E+01-4.32955E+00
 -1       435 5.59909E-15 9.14400E+01-2.59773E+00
 -1       436 5.59909E-15 9.14400E+01-8.65909E-01
 -1       437 5.59909E-15 9.14400E+01 8.65909E-01
 -1       438 5.59909E-15 9.14400E+01 2.59773E+00
 -1       439 5.59909E-15 9.14400E+01 4.32955E+00
 -1       440 5.59909E-15 9.14400E+01 6.06136E+00
 -1       441 5.59909E-15 9.14400E+01 7.79318E+00
 -1       442 4.97696E-15 8.12800E+01-7.79318E+00
 -1       443 4.97696E-15 8.12800E+01-6.06136E+00
 -1       444 4.97696E-15 8.12800E+01-4.32955E+00
 -1       445 4.97696E-15 8.12800E+01-2.59773E+00
 -1       446 4.97696E-15 8.12800E+01-8.65909E-01
 -1       447 4.97696E-15 8.12800E+01 8.65909E-01
 -1       448 4.97696E-15 8.12800E+01 2.59773E+00
 -1       449 4.97696E-15 8.12800E+01 4.32955E+00
 -1       450 4.97696E-15 8.12800E+01 6.06136E+00
 -1       451 4.97696E-15 8.12800E+01 7.79318E+00
 -1       452 4.35484E-15 7.11200E+01-7.79318E+00
 -1       453 4.35484E-15 7.11200E+01-6.06136E+00
 -1       454 4.35484E-15 7.11200E+01-4.32955E+00
 -1       455 4.35484E-15 7.11200E+01-2.59773E+00
 -1       456 4.35484E-15 7.11200E+01-8.65909E-01
 -1       457 4.35484E-15 7.11200E+01 8.65909E-01
 -1       458 4.35484E-15 7.11200E+01 2.59773E+00
 -1       459 4.35484E-15 7.11200E+01 4.32955E+00
 -1       460 4.35484E-15 7.11200E+01 6.06136E+00
 -1       461 4.35484E-15 7.11200E+01 7.79318E+00
 -1       462 3.73272E-15 6.09600E+01-7.79318E+00
 -1       463 3.73272E-15 6.09600E+01-6.06136E+00
 -1       464 3.73272E-15 6.09600E+01-4.32955E+00
 -1       465 3.73272E-15 6.09600E+01-2.59773E+00
 -1       466 3.73272E-15 6.09600E+01-8.65909E-01
 -1       467 3.73272E-15 6.09600E+01 8.65909E-01
 -1       468 3.73272E-15 6.09600E+01 2.59773E+00
 -1       469 3.73272E-15 6.09600E+01 4.32955E+00
 -1       470 3.73272E-15 6.09600E+01 6.06136E+00
 -1       471 3.73272E-15 6.09600E+01 7.79318E+00
 -1       472 1.56981E+01-4.83137E+01-7.79318E+00
 -1       473 1.56981E+01-4.83137E+01-6.06136E+00
 -1       474 1.56981E+01-4.83137E+01-4.32955E+00
 -1       475 1.56981E+01-4.83137E+01-2.59773E+00
 -1       476 1.56981E+01-4.83137E+01-8.65909E-01
 -1       477 1.56981E+01-4.83137E+01 8.65909E-01
 -1       478 1.56981E+01-4.83137E+01 2.59773E+00
 -1       479 1.56981E+01-4.83137E+01 4.32955E+00
 -1       480 1.56981E+01-4.83137E+01 6.06136E+00
 -1       481 1.56981E+01-4.83137E+01 7.79318E+00
 -1       482 2.98595E+01-4.10981E+01-7.79318E+00
 -1       483 2.98595E+01-4.10981E+01-6.06136E+00
 -1       484 2.98595E+01-4.10981E+01-4.32955E+00
 -1       485 2.98595E+01-4.10981E+01-2.59773E+00
 -1       486 2.98595E+01-4.10981E+01-8.65909E-01
 -1       487 2.98595E+01-4.10981E+01 8.65909E-01
 -1       488 2.98595E+01-4.10981E+01 2.59773E+00
 -1       489 2.98595E+01-4.10981E+01 4.32955E+00
 -1       490 2.98595E+01-4.10981E+01 6.06136E+00
 -1       491 2.98595E+01-4.10981E+01 7.79318E+00
 -1       492 4.10981E+01-2.98595E+01-7.79318E+00
 -1       493 4.10981E+01-2.98595E+01-6.06136E+00
 -1       494 4.10981E+01-2.98595E+01-4.32955E+00
 -1       495 4.10981E+01-2.98595E+01-2.59773E+00
 -1       496 4.10981E+01-2.98595E+01-8.65909E-01
 -1       497 4.10981E+01-2.98595E+01 8.65909E-01
 -1       498 4.10981E+01-2.98595E+01 2.59773E+00
 -1       499 4.10981E+01-2.98595E+01 4.32955E+00
 -1       500 4.10981E+01-2.98595E+01 6.06136E+00
 -1       501 4.10981E+01-2.98595E+01 7.79318E+00
 -1       502 4.83137E+01-1.56981E+01-7.79318E+00
 -1       503 4.83137E+01-1.56981E+01-6.06136E+00
 -1       504 4.83137E+01-1.56981E+01-4.32955E+00
 -1       505 4.83137E+01-1.56981E+01-2.59773E+00
 -1       506 4.83137E+01-1.56981E+01-8.65909E-01
 -1       507 4.83137E+01-1.56981E+01 8.65909E-01
 -1       508 4.83137E+01-1.56981E+01 2.59773E+00
 -1       509 4.83137E+01-1.56981E+01 4.32955E+00
 -1       510 4.83137E+01-1.56981E+01 6.06136E+00
 -1       511 4.83137E+01-1.56981E+01 7.79318E+00
 -1       512 5.08000E+01 2.39247E-07-7.79318E+00
 -1       513 5.08000E+01 2.39247E-07-6.06136E+00
 -1       514 5.08000E+01 2.39247E-07-4.32955E+00
 -1       515 5.08000E+01 2.39247E-07-2.59773E+00
 -1       516 5.08000E+01 2.39247E-07-8.65909E-01
 -1       517 5.08000E+01 2.39247E-07 8.65909E-01
 -1       518 5.08000E+01 2.39247E-07 2.59773E+00
 -1       519 5.08000E+01 2.39247E-07 4.32955E+00
 -1       520 5.08000E+01 2.39247E-07 6.06136E+00
 -1       521 5.08000E+01 2.39247E-07 7.79318E+00
 -1       522 4.83137E+01 1.56981E+01-7.79318E+00
 -1       523 4.83137E+01 1.56981E+01-6.06136E+00
 -1       524 4.83137E+01 1.56981E+01-4.32955E+00
 -1       525 4.83137E+01 1.56981E+01-2.59773E+00
 -1       526 4.83137E+01 1.56981E+01-8.65909E-01
 -1       527 4.83137E+01 1.56981E+01 8.65909E-01
 -1       528 4.83137E+01 1.56981E+01 2.59773E+00
 -1       529 4.83137E+01 1.56981E+01 4.32955E+00
 -1       530 4.83137E+01 1.56981E+01 6.06136E+00
 -1       531 4.83137E+01 1.56981E+01 7.79318E+00
 -1       532 4.10981E+01 2.98595E+01-7.79318E+00
 -1       533 4.10981E+01 2.98595E+01-6.06136E+00
 -1       534 4.10981E+01 2.98595E+01-4.32955E+00
 -1       535 4.10981E+01 2.98595E+01-2.59773E+00
 -1       536 4.10981E+01 2.98595E+01-8.65909E-01
 -1       537 4.10981E+01 2.98595E+01 8.65909E-01
 -1       538 4.10981E+01 2.98595E+01 2.59773E+00
 -1       539 4.10981E+01 2.98595E+01 4.32955E+00
 -1       540 4.10981E+01 2.98595E+01 6.06136E+00
 -1       541 4.10981E+01 2.98595E+01 7.79318E+00
 -1       542 2.98595E+01 4.10981E+01-7.79318E+00
 -1       543 2.98595E+01 4.10981E+01-6.06136E+00
 -1       544 2.98595E+01 4.10981E+01-4.32955E+00
 -1       545 2.98595E+01 4.10981E+01-2.59773E+00
 -1       546 2.98595E+01 4.10981E+01-8.65909E-01
 -1       547 2.98595E+01 4.10981E+01 8.65909E-01
 -1       548 2.98595E+01 4.10981E+01 2.59773E+00
 -1       549 2.98595E+01 4.10981E+01 4.32955E+00
 -1       550 2.98595E+01 4.10981E+01 6.06136E+00
 -1       551 2.98595E+01 4.10981E+01 7.79318E+00
 -1       552 1.56981E+01 4.83137E+01-7.79318E+00
 -1       553 1.56981E+01 4.83137E+01-6.06136E+00
 -1       554 1.56981E+01 4.83137E+01-4.32955E+00
 -1       555 1.56981E+01 4.83137E+01-2.59773E+00
 -1       556 1.56981E+01 4.83137E+01-8.65909E-01
 -1       557 1.56981E+01 4.83137E+01 8.65909E-01
 -1       558 1.56981E+01 4.83137E+01 2.59773E+00
 -1       559 1.56981E+01 4.83137E+01 4.32955E+00
 -1       560 1.56981E+01 4.83137E+01 6.06136E+00
 -1       561 1.56981E+01 4.83137E+01 7.79318E+00
 -1       562 1.88377E+01-5.79764E+01 9.52500E+00
 -1       563 3.58314E+01-4.93177E+01 9.52500E+00
 -1       564 4.93177E+01-3.58314E+01 9.52500E+00
 -1       565 5.79764E+01-1.88377E+01 9.52500E+00
 -1       566 6.09600E+01 2.84858E-07 9.52500E+00
 -1       567 5.79764E+01 1.88377E+01 9.52500E+00
 -1       568 4.93177E+01 3.58314E+01 9.52500E+00
 -1       569 3.58314E+01 4.93177E+01 9.52500E+00
 -1       570 1.88377E+01 5.79764E+01 9.52500E+00
 -1       571 2.19773E+01-6.76391E+01 9.52500E+00
 -1       572 4.18033E+01-5.75373E+01 9.52500E+00
 -1       573 5.75373E+01-4.18033E+01 9.52500E+00
 -1       574 6.76391E+01-2.19773E+01 9.52500E+00
 -1       575 7.11200E+01 3.30477E-07 9.52500E+00
 -1       576 6.76391E+01 2.19773E+01 9.52500E+00
 -1       577 5.75373E+01 4.18033E+01 9.52500E+00
 -1       578 4.18033E+01 5.75373E+01 9.52500E+00
 -1       579 2.19773E+01 6.76391E+01 9.52500E+00
 -1       580 2.51169E+01-7.73019E+01 9.52500E+00
 -1       581 4.77752E+01-6.57569E+01 9.52500E+00
 -1       582 6.57569E+01-4.77752E+01 9.52500E+00