<?xml version="1.0"?>
<VTKFile type="UnstructuredGrid" version="0.1" byte_order="LittleEndian">
	<UnstructuredGrid>
		<Piece NumberOfPoints="3120" NumberOfCells="1530">
			<Points>
				<DataArray type="Float64" NumberOfComponents="3" format="ascii">
					 1.00050000E+01	 0.00000000E+00	 0.00000000E+00
					 9.99500000E+00	 0.00000000E+00	 0.00000000E+00
					 1.00050000E+01	 0.00000000E+00	 1.00000000E+02
					 9.99500000E+00	 0.00000000E+00	 1.00000000E+02
					 9.78637000E+00	 2.08016000E+00	 0.00000000E+00
					 9.77659000E+00	 2.07808000E+00	 0.00000000E+00
					 9.14002000E+00	 4.06940000E+00	 0.00000000E+00
					 9.13089000E+00	 4.06533000E+00	 0.00000000E+00
					 8.09422000E+00	 5.88079000E+00	 0.00000000E+00
					 8.08612000E+00	 5.87491000E+00	 0.00000000E+00
					 6.69465000E+00	 7.43516000E+00	 0.00000000E+00
					 6.68796000E+00	 7.42773000E+00	 0.00000000E+00
					 5.00250000E+00	 8.66458000E+00	 0.00000000E+00
					 4.99750000E+00	 8.65592000E+00	 0.00000000E+00
					 3.09172000E+00	 9.51532000E+00	 0.00000000E+00
					 3.08862000E+00	 9.50581000E+00	 0.00000000E+00
					 1.04581000E+00	 9.95019000E+00	 0.00000000E+00
					 1.04476000E+00	 9.94025000E+00	 0.00000000E+00
					-1.04581000E+00	 9.95019000E+00	 0.00000000E+00
					-1.04476000E+00	 9.94025000E+00	 0.00000000E+00
					-3.09172000E+00	 9.51532000E+00	 0.00000000E+00
					-3.08862000E+00	 9.50581000E+00	 0.00000000E+00
					-5.00250000E+00	 8.66458000E+00	 0.00000000E+00
					-4.99750000E+00	 8.65592000E+00	 0.00000000E+00
					-6.69465000E+00	 7.43516000E+00	 0.00000000E+00
					-6.68796000E+00	 7.42773000E+00	 0.00000000E+00
					-8.09422000E+00	 5.88079000E+00	 0.00000000E+00
					-8.08612000E+00	 5.87491000E+00	 0.00000000E+00
					-9.14002000E+00	 4.06940000E+00	 0.00000000E+00
					-9.13089000E+00	 4.06533000E+00	 0.00000000E+00
					-9.78637000E+00	 2.08016000E+00	 0.00000000E+00
					-9.77659000E+00	 2.07808000E+00	 0.00000000E+00
					-1.00050000E+01	-2.09850000E-14	 0.00000000E+00
					-9.99500000E+00	-2.09746000E-14	 0.00000000E+00
					-9.78637000E+00	-2.08016000E+00	 0.00000000E+00
					-9.77659000E+00	-2.07808000E+00	 0.00000000E+00
					-9.14002000E+00	-4.06940000E+00	 0.00000000E+00
					-9.13089000E+00	-4.06533000E+00	 0.00000000E+00
					-8.09422000E+00	-5.88079000E+00	 0.00000000E+00
					-8.08612000E+00	-5.87491000E+00	 0.00000000E+00
					-6.69465000E+00	-7.43516000E+00	 0.00000000E+00
					-6.68796000E+00	-7.42773000E+00	 0.00000000E+00
					-5.00250000E+00	-8.66458000E+00	 0.00000000E+00
					-4.99750000E+00	-8.65592000E+00	 0.00000000E+00
					-3.09172000E+00	-9.51532000E+00	 0.00000000E+00
					-3.08862000E+00	-9.50581000E+00	 0.00000000E+00
					-1.04581000E+00	-9.95019000E+00	 0.00000000E+00
					-1.04476000E+00	-9.94025000E+00	 0.00000000E+00
					 1.04581000E+00	-9.95019000E+00	 0.00000000E+00
					 1.04476000E+00	-9.94025000E+00	 0.00000000E+00
					 3.09172000E+00	-9.51532000E+00	 0.00000000E+00
					 3.08862000E+00	-9.50581000E+00	 0.00000000E+00
					 5.00250000E+00	-8.66458000E+00	 0.00000000E+00
					 4.99750000E+00	-8.65592000E+00	 0.00000000E+00
					 6.69465000E+00	-7.43516000E+00	 0.00000000E+00
					 6.68796000E+00	-7.42773000E+00	 0.00000000E+00
					 8.09422000E+00	-5.88079000E+00	 0.00000000E+00
					 8.08612000E+00	-5.87491000E+00	 0.00000000E+00
					 9.14002000E+00	-4.06940000E+00	 0.00000000E+00
					 9.13089000E+00	-4.06533000E+00	 0.00000000E+00
					 9.78637000E+00	-2.08016000E+00	 0.00000000E+00
					 9.77659000E+00	-2.07808000E+00	 0.00000000E+00
					 1.00050000E+01	 0.00000000E+00	 1.96078000E+00
					 9.99500000E+00	 0.00000000E+00	 1.96078000E+00
					 1.00050000E+01	 0.00000000E+00	 3.92157000E+00
					 9.99500000E+00	 0.00000000E+00	 3.92157000E+00
					 1.00050000E+01	 0.00000000E+00	 5.88235000E+00
					 9.99500000E+00	 0.00000000E+00	 5.88235000E+00
					 1.00050000E+01	-1.74428000E-20	 7.84314000E+00
					 9.99500000E+00	 1.74428000E-20	 7.84314000E+00
					 1.00050000E+01	-1.74428000E-20	 9.80392000E+00
					 9.99500000E+00	 1.74428000E-20	 9.80392000E+00
					 1.00050000E+01	 0.00000000E+00	 1.17647000E+01
					 9.99500000E+00	 0.00000000E+00	 1.17647000E+01
					 1.00050000E+01	 0.00000000E+00	 1.37255000E+01
					 9.99500000E+00	 0.00000000E+00	 1.37255000E+01
					 1.00050000E+01	 0.00000000E+00	 1.56863000E+01
					 9.99500000E+00	 0.00000000E+00	 1.56863000E+01
					 1.00050000E+01	 0.00000000E+00	 1.76471000E+01
					 9.99500000E+00	 0.00000000E+00	 1.76471000E+01
					 1.00050000E+01	 0.00000000E+00	 1.96078000E+01
					 9.99500000E+00	 0.00000000E+00	 1.96078000E+01
					 1.00050000E+01	 0.00000000E+00	 2.15686000E+01
					 9.99500000E+00	 0.00000000E+00	 2.15686000E+01
					 1.00050000E+01	 0.00000000E+00	 2.35294000E+01
					 9.99500000E+00	 0.00000000E+00	 2.35294000E+01
					 1.00050000E+01	 0.00000000E+00	 2.54902000E+01
					 9.99500000E+00	 0.00000000E+00	 2.54902000E+01
					 1.00050000E+01	 0.00000000E+00	 2.74510000E+01
					 9.99500000E+00	 0.00000000E+00	 2.74510000E+01
					 1.00050000E+01	 0.00000000E+00	 2.94118000E+01
					 9.99500000E+00	 0.00000000E+00	 2.94118000E+01
					 1.00050000E+01	 0.00000000E+00	 3.13725000E+01
					 9.99500000E+00	 0.00000000E+00	 3.13725000E+01
					 1.00050000E+01	 0.00000000E+00	 3.33333000E+01
					 9.99500000E+00	 0.00000000E+00	 3.33333000E+01
					 1.00050000E+01	 0.00000000E+00	 3.52941000E+01
					 9.99500000E+00	 0.00000000E+00	 3.52941000E+01
					 1.00050000E+01	 0.00000000E+00	 3.72549000E+01
					 9.99500000E+00	 0.00000000E+00	 3.72549000E+01
					 1.00050000E+01	 0.00000000E+00	 3.92157000E+01
					 9.99500000E+00	 0.00000000E+00	 3.92157000E+01
					 1.00050000E+01	 0.00000000E+00	 4.11765000E+01
					 9.99500000E+00	 0.00000000E+00	 4.11765000E+01
					 1.00050000E+01	 0.00000000E+00	 4.31373000E+01
					 9.99500000E+00	 0.00000000E+00	 4.31373000E+01
					 1.00050000E+01	 0.00000000E+00	 4.50980000E+01
					 9.99500000E+00	 0.00000000E+00	 4.50980000E+01
					 1.00050000E+01	 0.00000000E+00	 4.70588000E+01
					 9.99500000E+00	 0.00000000E+00	 4.70588000E+01
					 1.00050000E+01	 0.00000000E+00	 4.90196000E+01
					 9.99500000E+00	 0.00000000E+00	 4.90196000E+01
					 1.00050000E+01	 0.00000000E+00	 5.09804000E+01
					 9.99500000E+00	 0.00000000E+00	 5.09804000E+01
					 1.00050000E+01	 0.00000000E+00	 5.29412000E+01
					 9.99500000E+00	 0.00000000E+00	 5.29412000E+01
					 1.00050000E+01	 0.00000000E+00	 5.49020000E+01
					 9.99500000E+00	 0.00000000E+00	 5.49020000E+01
					 1.00050000E+01	 0.00000000E+00	 5.68627000E+01
					 9.99500000E+00	 0.00000000E+00	 5.68627000E+01
					 1.00050000E+01	 0.00000000E+00	 5.88235000E+01
					 9.99500000E+00	 0.00000000E+00	 5.88235000E+01
					 1.00050000E+01	 0.00000000E+00	 6.07843000E+01
					 9.99500000E+00	 0.00000000E+00	 6.07843000E+01
					 1.00050000E+01	 0.00000000E+00	 6.27451000E+01
					 9.99500000E+00	 0.00000000E+00	 6.27451000E+01
					 1.00050000E+01	 0.00000000E+00	 6.47059000E+01
					 9.99500000E+00	 0.00000000E+00	 6.47059000E+01
					 1.00050000E+01	 0.00000000E+00	 6.66667000E+01
					 9.99500000E+00	 0.00000000E+00	 6.66667000E+01
					 1.00050000E+01	 0.00000000E+00	 6.86274000E+01
					 9.99500000E+00	 0.00000000E+00	 6.86274000E+01
					 1.00050000E+01	 0.00000000E+00	 7.05882000E+01
					 9.99500000E+00	 0.00000000E+00	 7.05882000E+01
					 1.00050000E+01	 0.00000000E+00	 7.25490000E+01
					 9.99500000E+00	 0.00000000E+00	 7.25490000E+01
					 1.00050000E+01	 0.00000000E+00	 7.45098000E+01
					 9.99500000E+00	 0.00000000E+00	 7.45098000E+01
					 1.00050000E+01	 0.00000000E+00	 7.64706000E+01
					 9.99500000E+00	 0.00000000E+00	 7.64706000E+01
					 1.00050000E+01	 0.00000000E+00	 7.84314000E+01
					 9.99500000E+00	 0.00000000E+00	 7.84314000E+01
					 1.00050000E+01	 0.00000000E+00	 8.03922000E+01
					 9.99500000E+00	 0.00000000E+00	 8.03922000E+01
					 1.00050000E+01	 0.00000000E+00	 8.23529000E+01
					 9.99500000E+00	 0.00000000E+00	 8.23529000E+01
					 1.00050000E+01	 0.00000000E+00	 8.43137000E+01
					 9.99500000E+00	 0.00000000E+00	 8.43137000E+01
					 1.00050000E+01	 0.00000000E+00	 8.62745000E+01
					 9.99500000E+00	 0.00000000E+00	 8.62745000E+01
					 1.00050000E+01	 0.00000000E+00	 8.82353000E+01
					 9.99500000E+00	 0.00000000E+00	 8.82353000E+01
					 1.00050000E+01	 0.00000000E+00	 9.01961000E+01
					 9.99500000E+00	 0.00000000E+00	 9.01961000E+01
					 1.00050000E+01	 0.00000000E+00	 9.21569000E+01
					 9.99500000E+00	 0.00000000E+00	 9.21569000E+01
					 1.00050000E+01	 0.00000000E+00	 9.41176000E+01
					 9.99500000E+00	 0.00000000E+00	 9.41176000E+01
					 1.00050000E+01	 0.00000000E+00	 9.60784000E+01
					 9.99500000E+00	 0.00000000E+00	 9.60784000E+01
					 1.00050000E+01	 0.00000000E+00	 9.80392000E+01
					 9.99500000E+00	 0.00000000E+00	 9.80392000E+01
					 9.78637000E+00	 2.08016000E+00	 1.00000000E+02
					 9.77659000E+00	 2.07808000E+00	 1.00000000E+02
					 9.14002000E+00	 4.06940000E+00	 1.00000000E+02
					 9.13089000E+00	 4.06533000E+00	 1.00000000E+02
					 8.09422000E+00	 5.88079000E+00	 1.00000000E+02
					 8.08612000E+00	 5.87491000E+00	 1.00000000E+02
					 6.69465000E+00	 7.43516000E+00	 1.00000000E+02
					 6.68796000E+00	 7.42773000E+00	 1.00000000E+02
					 5.00250000E+00	 8.66458000E+00	 1.00000000E+02
					 4.99750000E+00	 8.65592000E+00	 1.00000000E+02
					 3.09172000E+00	 9.51532000E+00	 1.00000000E+02
					 3.08862000E+00	 9.50581000E+00	 1.00000000E+02
					 1.04581000E+00	 9.95019000E+00	 1.00000000E+02
					 1.04476000E+00	 9.94025000E+00	 1.00000000E+02
					-1.04581000E+00	 9.95019000E+00	 1.00000000E+02
					-1.04476000E+00	 9.94025000E+00	 1.00000000E+02
					-3.09172000E+00	 9.51532000E+00	 1.00000000E+02
					-3.08862000E+00	 9.50581000E+00	 1.00000000E+02
					-5.00250000E+00	 8.66458000E+00	 1.00000000E+02
					-4.99750000E+00	 8.65592000E+00	 1.00000000E+02
					-6.69465000E+00	 7.43516000E+00	 1.00000000E+02
[...]
			<PointData>
				<DataArray type="Float32" Name="U" NumberOfComponents="3" ComponentName0="D1" ComponentName1="D2" ComponentName2="D3" format="ascii">
					 1.48778000E-05	 1.90359000E-16	-1.83580000E-04
					-1.48778000E-05	-1.90359000E-16	 1.83580000E-04
					 2.29130000E-02	-3.91293000E-09	-7.63059000E-01
					 2.28901000E-02	-3.92646000E-09	-7.63059000E-01
					 1.45526000E-05	 3.09326000E-06	-1.83580000E-04
					-1.45526000E-05	-3.09326000E-06	 1.83580000E-04
					 1.35915000E-05	 6.05133000E-06	-1.83580000E-04
					-1.35915000E-05	-6.05133000E-06	 1.83580000E-04
					 1.20364000E-05	 8.74493000E-06	-1.83580000E-04
					-1.20364000E-05	-8.74493000E-06	 1.83580000E-04
					 9.95516000E-06	 1.10563000E-05	-1.83580000E-04
					-9.95516000E-06	-1.10563000E-05	 1.83580000E-04
					 7.43888000E-06	 1.28845000E-05	-1.83580000E-04
					-7.43888000E-06	-1.28845000E-05	 1.83580000E-04
					 4.59748000E-06	 1.41496000E-05	-1.83580000E-04
					-4.59748000E-06	-1.41496000E-05	 1.83580000E-04
					 1.55515000E-06	 1.47963000E-05	-1.83580000E-04
					-1.55515000E-06	-1.47963000E-05	 1.83580000E-04
					-1.55515000E-06	 1.47963000E-05	-1.83580000E-04
					 1.55515000E-06	-1.47963000E-05	 1.83580000E-04
					-4.59748000E-06	 1.41496000E-05	-1.83580000E-04
					 4.59748000E-06	-1.41496000E-05	 1.83580000E-04
					-7.43888000E-06	 1.28845000E-05	-1.83580000E-04
					 7.43888000E-06	-1.28845000E-05	 1.83580000E-04
					-9.95516000E-06	 1.10563000E-05	-1.83580000E-04
					 9.95516000E-06	-1.10563000E-05	 1.83580000E-04
					-1.20364000E-05	 8.74493000E-06	-1.83580000E-04
					 1.20364000E-05	-8.74493000E-06	 1.83580000E-04
					-1.35915000E-05	 6.05133000E-06	-1.83580000E-04
					 1.35915000E-05	-6.05133000E-06	 1.83580000E-04
					-1.45526000E-05	 3.09326000E-06	-1.83580000E-04
					 1.45526000E-05	-3.09326000E-06	 1.83580000E-04
					-1.48778000E-05	-7.57967000E-16	-1.83580000E-04
					 1.48778000E-05	 7.57967000E-16	 1.83580000E-04
					-1.45526000E-05	-3.09326000E-06	-1.83580000E-04
					 1.45526000E-05	 3.09326000E-06	 1.83580000E-04
					-1.35915000E-05	-6.05133000E-06	-1.83580000E-04
					 1.35915000E-05	 6.05133000E-06	 1.83580000E-04
					-1.20364000E-05	-8.74493000E-06	-1.83580000E-04
					 1.20364000E-05	 8.74493000E-06	 1.83580000E-04
					-9.95516000E-06	-1.10563000E-05	-1.83580000E-04
					 9.95516000E-06	 1.10563000E-05	 1.83580000E-04
					-7.43888000E-06	-1.28845000E-05	-1.83580000E-04
					 7.43888000E-06	 1.28845000E-05	 1.83580000E-04
					-4.59748000E-06	-1.41496000E-05	-1.83580000E-04
					 4.59748000E-06	 1.41496000E-05	 1.83580000E-04
					-1.55515000E-06	-1.47963000E-05	-1.83580000E-04
					 1.55515000E-06	 1.47963000E-05	 1.83580000E-04
					 1.55515000E-06	-1.47963000E-05	-1.83580000E-04
					-1.55515000E-06	 1.47963000E-05	 1.83580000E-04
					 4.59748000E-06	-1.41496000E-05	-1.83580000E-04
					-4.59748000E-06	 1.41496000E-05	 1.83580000E-04
					 7.43888000E-06	-1.28845000E-05	-1.83580000E-04
					-7.43888000E-06	 1.28845000E-05	 1.83580000E-04
					 9.95516000E-06	-1.10563000E-05	-1.83580000E-04
					-9.95516000E-06	 1.10563000E-05	 1.83580000E-04
					 1.20364000E-05	-8.74493000E-06	-1.83580000E-04
					-1.20364000E-05	 8.74493000E-06	 1.83580000E-04
					 1.35915000E-05	-6.05133000E-06	-1.83580000E-04
					-1.35915000E-05	 6.05133000E-06	 1.83580000E-04
					 1.45526000E-05	-3.09326000E-06	-1.83580000E-04
					-1.45526000E-05	 3.09326000E-06	 1.83580000E-04
					 2.89581000E-02	-4.90849000E-12	-1.44360000E-02
					 2.89370000E-02	-4.97140000E-12	-1.45111000E-02
					 2.14007000E-02	-1.57829000E-11	-2.95762000E-02
					 2.13773000E-02	-1.59484000E-11	-2.95773000E-02
					 2.32207000E-02	-3.07984000E-11	-4.45203000E-02
					 2.31979000E-02	-3.11199000E-11	-4.45009000E-02
					 2.29243000E-02	-4.82253000E-11	-5.94783000E-02
					 2.29014000E-02	-4.87120000E-11	-5.95007000E-02
					 2.28302000E-02	-6.70107000E-11	-7.44676000E-02
					 2.28073000E-02	-6.76084000E-11	-7.44462000E-02
					 2.30116000E-02	-8.72486000E-11	-8.94171000E-02
					 2.29887000E-02	-8.79275000E-11	-8.94367000E-02
					 2.28227000E-02	-1.09386000E-10	-1.04405000E-01
					 2.27998000E-02	-1.10153000E-10	-1.04388000E-01
					 2.29992000E-02	-1.33112000E-10	-1.19358000E-01
					 2.29763000E-02	-1.33937000E-10	-1.19374000E-01
					 2.28390000E-02	-1.58318000E-10	-1.34343000E-01
					 2.28161000E-02	-1.59144000E-10	-1.34329000E-01
					 2.29832000E-02	-1.85945000E-10	-1.49299000E-01
					 2.29603000E-02	-1.86779000E-10	-1.49312000E-01
					 2.28537000E-02	-2.16769000E-10	-1.64281000E-01
					 2.28308000E-02	-2.17629000E-10	-1.64269000E-01
					 2.29699000E-02	-2.50919000E-10	-1.79239000E-01
					 2.29470000E-02	-2.51812000E-10	-1.79250000E-01
					 2.28657000E-02	-2.88169000E-10	-1.94219000E-01
					 2.28428000E-02	-2.89133000E-10	-1.94210000E-01
					 2.29591000E-02	-3.27779000E-10	-2.09180000E-01
					 2.29362000E-02	-3.28859000E-10	-2.09188000E-01
					 2.28753000E-02	-3.69034000E-10	-2.24157000E-01
					 2.28524000E-02	-3.70215000E-10	-2.24150000E-01
					 2.29505000E-02	-4.12746000E-10	-2.39120000E-01
					 2.29276000E-02	-4.14001000E-10	-2.39126000E-01
					 2.28831000E-02	-4.58851000E-10	-2.54096000E-01
					 2.28601000E-02	-4.60167000E-10	-2.54090000E-01
					 2.29436000E-02	-5.08516000E-10	-2.69059000E-01
					 2.29207000E-02	-5.09909000E-10	-2.69065000E-01
					 2.28893000E-02	-5.62530000E-10	-2.84034000E-01
					 2.28664000E-02	-5.64030000E-10	-2.84029000E-01
					 2.29380000E-02	-6.21215000E-10	-2.98999000E-01
					 2.29151000E-02	-6.22855000E-10	-2.99003000E-01
					 2.28943000E-02	-6.85269000E-10	-3.13973000E-01
					 2.28714000E-02	-6.87111000E-10	-3.13969000E-01
					 2.29335000E-02	-7.54264000E-10	-3.28939000E-01
					 2.29106000E-02	-7.56348000E-10	-3.28942000E-01
					 2.28983000E-02	-8.27985000E-10	-3.43912000E-01
					 2.28754000E-02	-8.30340000E-10	-3.43909000E-01
					 2.29299000E-02	-9.05872000E-10	-3.58878000E-01
					 2.29070000E-02	-9.08526000E-10	-3.58881000E-01
					 2.29015000E-02	-9.87633000E-10	-3.73851000E-01
					 2.28786000E-02	-9.90578000E-10	-3.73848000E-01
					 2.29270000E-02	-1.07387000E-09	-3.88818000E-01
					 2.29041000E-02	-1.07715000E-09	-3.88820000E-01
					 2.29041000E-02	-1.16542000E-09	-4.03790000E-01
					 2.28812000E-02	-1.16910000E-09	-4.03788000E-01
					 2.29247000E-02	-1.26070000E-09	-4.18757000E-01
					 2.29018000E-02	-1.26482000E-09	-4.18759000E-01
					 2.29062000E-02	-1.35948000E-09	-4.33729000E-01
					 2.28833000E-02	-1.36403000E-09	-4.33727000E-01
					 2.29228000E-02	-1.46114000E-09	-4.48697000E-01
					 2.28999000E-02	-1.46610000E-09	-4.48698000E-01
					 2.29079000E-02	-1.56553000E-09	-4.63668000E-01
					 2.28850000E-02	-1.57089000E-09	-4.63666000E-01
					 2.29213000E-02	-1.67292000E-09	-4.78636000E-01
					 2.28984000E-02	-1.67874000E-09	-4.78637000E-01
					 2.29092000E-02	-1.78324000E-09	-4.93607000E-01
					 2.28863000E-02	-1.78956000E-09	-4.93606000E-01
					 2.29202000E-02	-1.89509000E-09	-5.08575000E-01
					 2.28973000E-02	-1.90188000E-09	-5.08576000E-01
					 2.29103000E-02	-2.00725000E-09	-5.23546000E-01
					 2.28873000E-02	-2.01445000E-09	-5.23545000E-01
					 2.29192000E-02	-2.12132000E-09	-5.38515000E-01
					 2.28963000E-02	-2.12888000E-09	-5.38515000E-01
					 2.29111000E-02	-2.23529000E-09	-5.53485000E-01
					 2.28882000E-02	-2.24321000E-09	-5.53484000E-01
					 2.29185000E-02	-2.35169000E-09	-5.68454000E-01
					 2.28956000E-02	-2.36001000E-09	-5.68455000E-01
					 2.29117000E-02	-2.47161000E-09	-5.83424000E-01
					 2.28888000E-02	-2.48040000E-09	-5.83424000E-01
					 2.29179000E-02	-2.59351000E-09	-5.98393000E-01
					 2.28950000E-02	-2.60285000E-09	-5.98394000E-01
					 2.29122000E-02	-2.71637000E-09	-6.13363000E-01
					 2.28893000E-02	-2.72625000E-09	-6.13363000E-01
					 2.29175000E-02	-2.83909000E-09	-6.28333000E-01
					 2.28946000E-02	-2.84943000E-09	-6.28333000E-01
					 2.29126000E-02	-2.96063000E-09	-6.43302000E-01
					 2.28897000E-02	-2.97136000E-09	-6.43302000E-01
					 2.29172000E-02	-3.08157000E-09	-6.58272000E-01
					 2.28943000E-02	-3.09268000E-09	-6.58272000E-01
					 2.29128000E-02	-3.20225000E-09	-6.73242000E-01
					 2.28899000E-02	-3.21375000E-09	-6.73241000E-01
					 2.29170000E-02	-3.32327000E-09	-6.88211000E-01
					 2.28941000E-02	-3.33516000E-09	-6.88211000E-01
					 2.29130000E-02	-3.44348000E-09	-7.03181000E-01
					 2.28901000E-02	-3.45575000E-09	-7.03181000E-01
					 2.29169000E-02	-3.56308000E-09	-7.18150000E-01
					 2.28940000E-02	-3.57573000E-09	-7.18150000E-01
					 2.29130000E-02	-3.68151000E-09	-7.33120000E-01
					 2.28901000E-02	-3.69450000E-09	-7.33120000E-01
					 2.29169000E-02	-3.80104000E-09	-7.48090000E-01
					 2.28940000E-02	-3.81432000E-09	-7.48089000E-01
					 2.24123000E-02	 4.76388000E-03	-7.63059000E-01
					 2.23899000E-02	 4.75912000E-03	-7.63059000E-01
					 2.09321000E-02	 9.31955000E-03	-7.63059000E-01
					 2.09112000E-02	 9.31024000E-03	-7.63059000E-01
					 1.85370000E-02	 1.34679000E-02	-7.63059000E-01
					 1.85185000E-02	 1.34545000E-02	-7.63059000E-01
					 1.53318000E-02	 1.70277000E-02	-7.63059000E-01
					 1.53165000E-02	 1.70106000E-02	-7.63059000E-01
					 1.14565000E-02	 1.98432000E-02	-7.63059000E-01
					 1.14451000E-02	 1.98234000E-02	-7.63059000E-01
					 7.08051000E-03	 2.17915000E-02	-7.63059000E-01
					 7.07343000E-03	 2.17698000E-02	-7.63059000E-01
					 2.39506000E-03	 2.27875000E-02	-7.63059000E-01
					 2.39267000E-03	 2.27647000E-02	-7.63059000E-01
					-2.39506000E-03	 2.27875000E-02	-7.63059000E-01
					-2.39267000E-03	 2.27647000E-02	-7.63059000E-01
					-7.08051000E-03	 2.17916000E-02	-7.63059000E-01
					-7.07343000E-03	 2.17698000E-02	-7.63059000E-01
					-1.14565000E-02	 1.98432000E-02	-7.63059000E-01
					-1.14451000E-02	 1.98234000E-02	-7.63059000E-01
					-1.53318000E-02	 1.70277000E-02	-7.63059000E-01
					-1.53165000E-02	 1.70107000E-02	-7.63059000E-01
					-1.85370000E-02	 1.34679000E-02	-7.63059000E-01
					-1.85185000E-02	 1.34545000E-02	-7.63059000E-01
					-2.09321000E-02	 9.31956000E-03	-7.63059000E-01
					-2.09112000E-02	 9.31025000E-03	-7.63059000E-01
					-2.24123000E-02	 4.76388000E-03	-7.63059000E-01
					-2.23899000E-02	 4.75912000E-03	-7.63059000E-01
					-2.29130000E-02	 2.32038000E-09	-7.63059000E-01
					-2.28901000E-02	 2.32743000E-09	-7.63059000E-01
					-2.24123000E-02	-4.76388000E-03	-7.63059000E-01
					-2.23899000E-02	-4.75912000E-03	-7.63059000E-01
					-2.09321000E-02	-9.31956000E-03	-7.63059000E-01
					-2.09112000E-02	-9.31024000E-03	-7.63059000E-01
					-1.85370000E-02	-1.34679000E-02	-7.63059000E-01
					-1.85185000E-02	-1.34545000E-02	-7.63059000E-01
					-1.53318000E-02	-1.70277000E-02	-7.63059000E-01
					-1.53165000E-02	-1.70107000E-02	-7.63059000E-01
					-1.14565000E-02	-1.98432000E-02	-7.63059000E-01
					-1.14451000E-02	-1.98234000E-02	-7.63059000E-01
					-7.08051000E-03	-2.17916000E-02	-7.63059000E-01
					-7.07343000E-03	-2.17698000E-02	-7.63059000E-01
					-2.39506000E-03	-2.27875000E-02	-7.63059000E-01
					-2.39266000E-03	-2.27647000E-02	-7.63059000E-01
					 2.39507000E-03	-2.27875000E-02	-7.63059000E-01
					 2.39267000E-03	-2.27647000E-02	-7.63059000E-01
					 7.08051000E-03	-2.17916000E-02	-7.63059000E-01
					 7.07344000E-03	-2.17698000E-02	-7.63059000E-01
					 1.14565000E-02	-1.98432000E-02	-7.63059000E-01
					 1.14451000E-02	-1.98234000E-02	-7.63059000E-01
					 1.53318000E-02	-1.70277000E-02	-7.63059000E-01
					 1.53165000E-02	-1.70107000E-02	-7.63059000E-01
					 1.85370000E-02	-1.34679000E-02	-7.63059000E-01
					 1.85185000E-02	-1.34545000E-02	-7.63059000E-01
					 2.09321000E-02	-9.31956000E-03	-7.63059000E-01
					 2.09112000E-02	-9.31025000E-03	-7.63059000E-01
					 2.24123000E-02	-4.76389000E-03	-7.63059000E-01
					 2.23899000E-02	-4.75912000E-03	-7.63059000E-01
					 2.83253000E-02	 6.02073000E-03	-1.44360000E-02
					 2.83047000E-02	 6.01634000E-03	-1.45111000E-02
					 2.09330000E-02	 4.44945000E-03	-2.95762000E-02
					 2.09102000E-02	 4.44459000E-03	-2.95773000E-02
					 2.27133000E-02	 4.82786000E-03	-4.45203000E-02
					 2.26910000E-02	 4.82312000E-03	-4.45009000E-02
					 2.24233000E-02	 4.76622000E-03	-5.94783000E-02
					 2.24009000E-02	 4.76146000E-03	-5.95007000E-02
					 2.23313000E-02	 4.74666000E-03	-7.44676000E-02
					 2.23089000E-02	 4.74189000E-03	-7.44462000E-02
					 2.25087000E-02	 4.78437000E-03	-8.94171000E-02
					 2.24863000E-02	 4.77962000E-03	-8.94367000E-02
					 2.23240000E-02	 4.74511000E-03	-1.04405000E-01
					 2.23016000E-02	 4.74035000E-03	-1.04388000E-01
					 2.24966000E-02	 4.78179000E-03	-1.19358000E-01
					 2.24742000E-02	 4.77704000E-03	-1.19374000E-01
					 2.23399000E-02	 4.74850000E-03	-1.34343000E-01
					 2.23175000E-02	 4.74373000E-03	-1.34329000E-01
					 2.24809000E-02	 4.77847000E-03	-1.49299000E-01
					 2.24585000E-02	 4.77371000E-03	-1.49312000E-01
					 2.23543000E-02	 4.75156000E-03	-1.64281000E-01
					 2.23319000E-02	 4.74679000E-03	-1.64269000E-01
					 2.24679000E-02	 4.77570000E-03	-1.79239000E-01
					 2.24455000E-02	 4.77094000E-03	-1.79250000E-01
					 2.23660000E-02	 4.75404000E-03	-1.94219000E-01
					 2.23436000E-02	 4.74928000E-03	-1.94210000E-01
					 2.24574000E-02	 4.77347000E-03	-2.09180000E-01
					 2.24350000E-02	 4.76871000E-03	-2.09188000E-01
					 2.23754000E-02	 4.75604000E-03	-2.24157000E-01
					 2.23530000E-02	 4.75128000E-03	-2.24150000E-01
					 2.24490000E-02	 4.77168000E-03	-2.39120000E-01
					 2.24266000E-02	 4.76692000E-03	-2.39126000E-01
					 2.23830000E-02	 4.75765000E-03	-2.54096000E-01
					 2.23606000E-02	 4.75289000E-03	-2.54090000E-01
					 2.24422000E-02	 4.77023000E-03	-2.69059000E-01
					 2.24198000E-02	 4.76547000E-03	-2.69065000E-01
					 2.23891000E-02	 4.75895000E-03	-2.84034000E-01
					 2.23667000E-02	 4.75418000E-03	-2.84029000E-01
					 2.24367000E-02	 4.76907000E-03	-2.98999000E-01
					 2.24143000E-02	 4.76431000E-03	-2.99003000E-01
					 2.23940000E-02	 4.75999000E-03	-3.13973000E-01
					 2.23716000E-02	 4.75522000E-03	-3.13969000E-01
					 2.24323000E-02	 4.76814000E-03	-3.28939000E-01
					 2.24100000E-02	 4.76338000E-03	-3.28942000E-01
					 2.23979000E-02	 4.76082000E-03	-3.43912000E-01
					 2.23755000E-02	 4.75606000E-03	-3.43909000E-01
					 2.24288000E-02	 4.76739000E-03	-3.58878000E-01
					 2.24064000E-02	 4.76263000E-03	-3.58881000E-01
					 2.24011000E-02	 4.76149000E-03	-3.73851000E-01
					 2.23787000E-02	 4.75673000E-03	-3.73848000E-01
					 2.24260000E-02	 4.76679000E-03	-3.88818000E-01
					 2.24036000E-02	 4.76203000E-03	-3.88820000E-01
					 2.24036000E-02	 4.76203000E-03	-4.03790000E-01
					 2.23812000E-02	 4.75727000E-03	-4.03788000E-01
					 2.24237000E-02	 4.76631000E-03	-4.18757000E-01
					 2.24013000E-02	 4.76155000E-03	-4.18759000E-01
					 2.24057000E-02	 4.76247000E-03	-4.33729000E-01
					 2.23832000E-02	 4.75770000E-03	-4.33727000E-01
					 2.24219000E-02	 4.76592000E-03	-4.48697000E-01
					 2.23995000E-02	 4.76116000E-03	-4.48698000E-01
					 2.24073000E-02	 4.76281000E-03	-4.63668000E-01
					 2.23849000E-02	 4.75805000E-03	-4.63666000E-01
					 2.24205000E-02	 4.76561000E-03	-4.78636000E-01
					 2.23981000E-02	 4.76085000E-03	-4.78637000E-01
					 2.24086000E-02	 4.76309000E-03	-4.93607000E-01
					 2.23862000E-02	 4.75832000E-03	-4.93606000E-01
					 2.24193000E-02	 4.76537000E-03	-5.08575000E-01
					 2.23969000E-02	 4.76060000E-03	-5.08576000E-01
					 2.24096000E-02	 4.76331000E-03	-5.23546000E-01
					 2.23872000E-02	 4.75854000E-03	-5.23545000E-01
					 2.24184000E-02	 4.76517000E-03	-5.38515000E-01
					 2.23960000E-02	 4.76041000E-03	-5.38515000E-01
					 2.24104000E-02	 4.76348000E-03	-5.53485000E-01
					 2.23880000E-02	 4.75872000E-03	-5.53484000E-01
					 2.24177000E-02	 4.76502000E-03	-5.68454000E-01
					 2.23953000E-02	 4.76026000E-03	-5.68455000E-01
					 2.24110000E-02	 4.76361000E-03	-5.83424000E-01
					 2.23886000E-02	 4.75885000E-03	-5.83424000E-01
					 2.24171000E-02	 4.76490000E-03	-5.98393000E-01
					 2.23947000E-02	 4.76014000E-03	-5.98394000E-01
					 2.24115000E-02	 4.76371000E-03	-6.13363000E-01
					 2.23891000E-02	 4.75895000E-03	-6.13363000E-01
					 2.24167000E-02	 4.76481000E-03	-6.28333000E-01
					 2.23943000E-02	 4.76005000E-03	-6.28333000E-01
					 2.24119000E-02	 4.76379000E-03	-6.43302000E-01
					 2.23895000E-02	 4.75903000E-03	-6.43302000E-01
					 2.24164000E-02	 4.76475000E-03	-6.58272000E-01
					 2.23940000E-02	 4.75999000E-03	-6.58272000E-01
					 2.24121000E-02	 4.76384000E-03	-6.73242000E-01
					 2.23897000E-02	 4.75908000E-03	-6.73241000E-01
					 2.24162000E-02	 4.76471000E-03	-6.88211000E-01
					 2.23938000E-02	 4.75995000E-03	-6.88211000E-01
					 2.24123000E-02	 4.76387000E-03	-7.03181000E-01
					 2.23899000E-02	 4.75911000E-03	-7.03181000E-01
					 2.24161000E-02	 4.76469000E-03	-7.18150000E-01
					 2.23937000E-02	 4.75993000E-03	-7.18150000E-01
					 2.24123000E-02	 4.76388000E-03	-7.33120000E-01
					 2.23899000E-02	 4.75912000E-03	-7.33120000E-01
					 2.24161000E-02	 4.76468000E-03	-7.48090000E-01
					 2.23937000E-02	 4.75992000E-03	-7.48089000E-01
					 2.64545000E-02	 1.17783000E-02	-1.44360000E-02
					 2.64353000E-02	 1.17697000E-02	-1.45111000E-02
					 1.95505000E-02	 8.70443000E-03	-2.95762000E-02
					 1.95291000E-02	 8.69493000E-03	-2.95773000E-02
					 2.12132000E-02	 9.44472000E-03	-4.45203000E-02
					 2.11923000E-02	 9.43544000E-03	-4.45009000E-02
					 2.09424000E-02	 9.32414000E-03	-5.94783000E-02
					 2.09214000E-02	 9.31482000E-03	-5.95007000E-02
					 2.08564000E-02	 9.28587000E-03	-7.44676000E-02
					 2.08355000E-02	 9.27655000E-03	-7.44462000E-02
					 2.10221000E-02	 9.35965000E-03	-8.94171000E-02
					 2.10012000E-02	 9.35034000E-03	-8.94367000E-02
					 2.08496000E-02	 9.28284000E-03	-1.04405000E-01
					 2.08287000E-02	 9.27352000E-03	-1.04388000E-01
					 2.10108000E-02	 9.35460000E-03	-1.19358000E-01
					 2.09899000E-02	 9.34529000E-03	-1.19374000E-01
					 2.08645000E-02	 9.28947000E-03	-1.34343000E-01
					 2.08435000E-02	 9.28014000E-03	-1.34329000E-01
					 2.09962000E-02	 9.34809000E-03	-1.49299000E-01
					 2.09753000E-02	 9.33879000E-03	-1.49312000E-01
					 2.08779000E-02	 9.29545000E-03	-1.64281000E-01
					 2.08570000E-02	 9.28613000E-03	-1.64269000E-01
					 2.09840000E-02	 9.34269000E-03	-1.79239000E-01
					 2.09631000E-02	 9.33338000E-03	-1.79250000E-01
					 2.08888000E-02	 9.30031000E-03	-1.94219000E-01
					 2.08679000E-02	 9.29099000E-03	-1.94210000E-01
					 2.09742000E-02	 9.33832000E-03	-2.09180000E-01
					 2.09533000E-02	 9.32901000E-03	-2.09188000E-01
					 2.08976000E-02	 9.30423000E-03	-2.24157000E-01
					 2.08767000E-02	 9.29491000E-03	-2.24150000E-01
					 2.09663000E-02	 9.33481000E-03	-2.39120000E-01
					 2.09454000E-02	 9.32550000E-03	-2.39126000E-01
					 2.09047000E-02	 9.30737000E-03	-2.54096000E-01
					 2.08838000E-02	 9.29805000E-03	-2.54090000E-01
					 2.09600000E-02	 9.33199000E-03	-2.69059000E-01
					 2.09391000E-02	 9.32268000E-03	-2.69065000E-01
					 2.09104000E-02	 9.30991000E-03	-2.84034000E-01
					 2.08895000E-02	 9.30059000E-03	-2.84029000E-01
					 2.09549000E-02	 9.32972000E-03	-2.98999000E-01
					 2.09340000E-02	 9.32041000E-03	-2.99003000E-01
					 2.09150000E-02	 9.31194000E-03	-3.13973000E-01
					 2.08940000E-02	 9.30262000E-03	-3.13969000E-01
					 2.09508000E-02	 9.32789000E-03	-3.28939000E-01
					 2.09299000E-02	 9.31858000E-03	-3.28942000E-01
					 2.09186000E-02	 9.31358000E-03	-3.43912000E-01
					 2.08977000E-02	 9.30426000E-03	-3.43909000E-01
					 2.09475000E-02	 9.32643000E-03	-3.58878000E-01
					 2.09266000E-02	 9.31711000E-03	-3.58881000E-01
					 2.09216000E-02	 9.31489000E-03	-3.73851000E-01
					 2.09007000E-02	 9.30557000E-03	-3.73848000E-01
					 2.09449000E-02	 9.32525000E-03	-3.88818000E-01
					 2.09239000E-02	 9.31593000E-03	-3.88820000E-01
					 2.09240000E-02	 9.31594000E-03	-4.03790000E-01
					 2.09030000E-02	 9.30663000E-03	-4.03788000E-01