    1C
    1U cylinder.inp                                                     
    1UUSER                                                              
    1UDATE              26.february.2021                                
    1UTIME              11:09:35                                        
    1UHOST                                                              
    1UPGM               CalculiX                                        
    1UVERSION           Version 2.17                             
    1UCOMPILETIME       Thu Jul 23 21:29:36 CEST 2020                    
    1UDIR                                                               
    1UDBN                                                               
    1UMAT    1STEEL                                                     
    2C                          3120                                     1
 -1   1000002 1.00050E+01 0.00000E+00 0.00000E+00
 -1   1000004 9.99500E+00 0.00000E+00 0.00000E+00
 -1   1000005 1.00050E+01 0.00000E+00 1.00000E+02
 -1   1000007 9.99500E+00 0.00000E+00 1.00000E+02
 -1   1000008 9.78637E+00 2.08016E+00 0.00000E+00
 -1   1000010 9.77659E+00 2.07808E+00 0.00000E+00
 -1   1000011 9.14002E+00 4.06940E+00 0.00000E+00
 -1   1000013 9.13089E+00 4.06533E+00 0.00000E+00
 -1   1000014 8.09422E+00 5.88079E+00 0.00000E+00
 -1   1000016 8.08612E+00 5.87491E+00 0.00000E+00
 -1   1000017 6.69465E+00 7.43516E+00 0.00000E+00
 -1   1000019 6.68796E+00 7.42773E+00 0.00000E+00
 -1   1000020 5.00250E+00 8.66458E+00 0.00000E+00
 -1   1000022 4.99750E+00 8.65592E+00 0.00000E+00
 -1   1000023 3.09172E+00 9.51532E+00 0.00000E+00
 -1   1000025 3.08862E+00 9.50581E+00 0.00000E+00
 -1   1000026 1.04581E+00 9.95019E+00 0.00000E+00
 -1   1000028 1.04476E+00 9.94025E+00 0.00000E+00
 -1   1000029-1.04581E+00 9.95019E+00 0.00000E+00
 -1   1000031-1.04476E+00 9.94025E+00 0.00000E+00
 -1   1000032-3.09172E+00 9.51532E+00 0.00000E+00
 -1   1000034-3.08862E+00 9.50581E+00 0.00000E+00
 -1   1000035-5.00250E+00 8.66458E+00 0.00000E+00
 -1   1000037-4.99750E+00 8.65592E+00 0.00000E+00
 -1   1000038-6.69465E+00 7.43516E+00 0.00000E+00
 -1   1000040-6.68796E+00 7.42773E+00 0.00000E+00
 -1   1000041-8.09422E+00 5.88079E+00 0.00000E+00
 -1   1000043-8.08612E+00 5.87491E+00 0.00000E+00
 -1   1000044-9.14002E+00 4.06940E+00 0.00000E+00
 -1   1000046-9.13089E+00 4.06533E+00 0.00000E+00
 -1   1000047-9.78637E+00 2.08016E+00 0.00000E+00
 -1   1000049-9.77659E+00 2.07808E+00 0.00000E+00
 -1   1000050-1.00050E+01-2.09850E-14 0.00000E+00
 -1   1000052-9.99500E+00-2.09746E-14 0.00000E+00
 -1   1000053-9.78637E+00-2.08016E+00 0.00000E+00
 -1   1000055-9.77659E+00-2.07808E+00 0.00000E+00
 -1   1000056-9.14002E+00-4.06940E+00 0.00000E+00
 -1   1000058-9.13089E+00-4.06533E+00 0.00000E+00
 -1   1000059-8.09422E+00-5.88079E+00 0.00000E+00
 -1   1000061-8.08612E+00-5.87491E+00 0.00000E+00
 -1   1000062-6.69465E+00-7.43516E+00 0.00000E+00
 -1   1000064-6.68796E+00-7.42773E+00 0.00000E+00
 -1   1000065-5.00250E+00-8.66458E+00 0.00000E+00
 -1   1000067-4.99750E+00-8.65592E+00 0.00000E+00
 -1   1000068-3.09172E+00-9.51532E+00 0.00000E+00
 -1   1000070-3.08862E+00-9.50581E+00 0.00000E+00
 -1   1000071-1.04581E+00-9.95019E+00 0.00000E+00
 -1   1000073-1.04476E+00-9.94025E+00 0.00000E+00
 -1   1000074 1.04581E+00-9.95019E+00 0.00000E+00
 -1   1000076 1.04476E+00-9.94025E+00 0.00000E+00
 -1   1000077 3.09172E+00-9.51532E+00 0.00000E+00
 -1   1000079 3.08862E+00-9.50581E+00 0.00000E+00
 -1   1000080 5.00250E+00-8.66458E+00 0.00000E+00
 -1   1000082 4.99750E+00-8.65592E+00 0.00000E+00
 -1   1000083 6.69465E+00-7.43516E+00 0.00000E+00
 -1   1000085 6.68796E+00-7.42773E+00 0.00000E+00
 -1   1000086 8.09422E+00-5.88079E+00 0.00000E+00
 -1   1000088 8.08612E+00-5.87491E+00 0.00000E+00
 -1   1000089 9.14002E+00-4.06940E+00 0.00000E+00
 -1   1000091 9.13089E+00-4.06533E+00 0.00000E+00
 -1   1000092 9.78637E+00-2.08016E+00 0.00000E+00
 -1   1000094 9.77659E+00-2.07808E+00 0.00000E+00
 -1   1000095 1.00050E+01 0.00000E+00 1.96078E+00
 -1   1000097 9.99500E+00 0.00000E+00 1.96078E+00
 -1   1000098 1.00050E+01 0.00000E+00 3.92157E+00
 -1   1000100 9.99500E+00 0.00000E+00 3.92157E+00
 -1   1000101 1.00050E+01 0.00000E+00 5.88235E+00
 -1   1000103 9.99500E+00 0.00000E+00 5.88235E+00
 -1   1000104 1.00050E+01-1.74428E-20 7.84314E+00
 -1   1000106 9.99500E+00 1.74428E-20 7.84314E+00
 -1   1000107 1.00050E+01-1.74428E-20 9.80392E+00
 -1   1000109 9.99500E+00 1.74428E-20 9.80392E+00
 -1   1000110 1.00050E+01 0.00000E+00 1.17647E+01
 -1   1000112 9.99500E+00 0.00000E+00 1.17647E+01
 -1   1000113 1.00050E+01 0.00000E+00 1.37255E+01
 -1   1000115 9.99500E+00 0.00000E+00 1.37255E+01
 -1   1000116 1.00050E+01 0.00000E+00 1.56863E+01
 -1   1000118 9.99500E+00 0.00000E+00 1.56863E+01
 -1   1000119 1.00050E+01 0.00000E+00 1.76471E+01
 -1   1000121 9.99500E+00 0.00000E+00 1.76471E+01
 -1   1000122 1.00050E+01 0.00000E+00 1.96078E+01
 -1   1000124 9.99500E+00 0.00000E+00 1.96078E+01
 -1   1000125 1.00050E+01 0.00000E+00 2.15686E+01
 -1   1000127 9.99500E+00 0.00000E+00 2.15686E+01
 -1   1000128 1.00050E+01 0.00000E+00 2.35294E+01
 -1   1000130 9.99500E+00 0.00000E+00 2.35294E+01
 -1   1000131 1.00050E+01 0.00000E+00 2.54902E+01
 -1   1000133 9.99500E+00 0.00000E+00 2.54902E+01
 -1   1000134 1.00050E+01 0.00000E+00 2.74510E+01
 -1   1000136 9.99500E+00 0.00000E+00 2.74510E+01
 -1   1000137 1.00050E+01 0.00000E+00 2.94118E+01
 -1   1000139 9.99500E+00 0.00000E+00 2.94118E+01
 -1   1000140 1.00050E+01 0.00000E+00 3.13725E+01
 -1   1000142 9.99500E+00 0.00000E+00 3.13725E+01
 -1   1000143 1.00050E+01 0.00000E+00 3.33333E+01
 -1   1000145 9.99500E+00 0.00000E+00 3.33333E+01
 -1   1000146 1.00050E+01 0.00000E+00 3.52941E+01
 -1   1000148 9.99500E+00 0.00000E+00 3.52941E+01
 -1   1000149 1.00050E+01 0.00000E+00 3.72549E+01
 -1   1000151 9.99500E+00 0.00000E+00 3.72549E+01
 -1   1000152 1.00050E+01 0.00000E+00 3.92157E+01
 -1   1000154 9.99500E+00 0.00000E+00 3.92157E+01
 -1   1000155 1.00050E+01 0.00000E+00 4.11765E+01
 -1   1000157 9.99500E+00 0.00000E+00 4.11765E+01
 -1   1000158 1.00050E+01 0.00000E+00 4.31373E+01
 -1   1000160 9.99500E+00 0.00000E+00 4.31373E+01
 -1   1000161 1.00050E+01 0.00000E+00 4.50980E+01
 -1   1000163 9.99500E+00 0.00000E+00 4.50980E+01
 -1   1000164 1.00050E+01 0.00000E+00 4.70588E+01
 -1   1000166 9.99500E+00 0.00000E+00 4.70588E+01
 -1   1000167 1.00050E+01 0.00000E+00 4.90196E+01
 -1   1000169 9.99500E+00 0.00000E+00 4.90196E+01
 -1   1000170 1.00050E+01 0.00000E+00 5.09804E+01
 -1   1000172 9.99500E+00 0.00000E+00 5.09804E+01
 -1   1000173 1.00050E+01 0.00000E+00 5.29412E+01
 -1   1000175 9.99500E+00 0.00000E+00 5.29412E+01
 -1   1000176 1.00050E+01 0.00000E+00 5.49020E+01
 -1   1000178 9.99500E+00 0.00000E+00 5.49020E+01
 -1   1000179 1.00050E+01 0.00000E+00 5.68627E+01
 -1   1000181 9.99500E+00 0.00000E+00 5.68627E+01
 -1   1000182 1.00050E+01 0.00000E+00 5.88235E+01
 -1   1000184 9.99500E+00 0.00000E+00 5.88235E+01
 -1   1000185 1.00050E+01 0.00000E+00 6.07843E+01
 -1   1000187 9.99500E+00 0.00000E+00 6.07843E+01
 -1   1000188 1.00050E+01 0.00000E+00 6.27451E+01
 -1   1000190 9.99500E+00 0.00000E+00 6.27451E+01
 -1   1000191 1.00050E+01 0.00000E+00 6.47059E+01
 -1   1000193 9.99500E+00 0.00000E+00 6.47059E+01
 -1   1000194 1.00050E+01 0.00000E+00 6.66667E+01
 -1   1000196 9.99500E+00 0.00000E+00 6.66667E+01
 -1   1000197 1.00050E+01 0.00000E+00 6.86274E+01
 -1   1000199 9.99500E+00 0.00000E+00 6.86274E+01
 -1   1000200 1.00050E+01 0.00000E+00 7.05882E+01
 -1   1000202 9.99500E+00 0.00000E+00 7.05882E+01
 -1   1000203 1.00050E+01 0.00000E+00 7.25490E+01
 -1   1000205 9.99500E+00 0.00000E+00 7.25490E+01
 -1   1000206 1.00050E+01 0.00000E+00 7.45098E+01
 -1   1000208 9.99500E+00 0.00000E+00 7.45098E+01
 -1   1000209 1.00050E+01 0.00000E+00 7.64706E+01
 -1   1000211 9.99500E+00 0.00000E+00 7.64706E+01
 -1   1000212 1.00050E+01 0.00000E+00 7.84314E+01
 -1   1000214 9.99500E+00 0.00000E+00 7.84314E+01
 -1   1000215 1.00050E+01 0.00000E+00 8.03922E+01
 -1   1000217 9.99500E+00 0.00000E+00 8.03922E+01
 -1   1000218 1.00050E+01 0.00000E+00 8.23529E+01
 -1   1000220 9.99500E+00 0.00000E+00 8.23529E+01
 -1   1000221 1.00050E+01 0.00000E+00 8.43137E+01
 -1   1000223 9.99500E+00 0.00000E+00 8.43137E+01
 -1   1000224 1.00050E+01 0.00000E+00 8.62745E+01
 -1   1000226 9.99500E+00 0.00000E+00 8.62745E+01
 -1   1000227 1.00050E+01 0.00000E+00 8.82353E+01
 -1   1000229 9.99500E+00 0.00000E+00 8.82353E+01
 -1   1000230 1.00050E+01 0.00000E+00 9.01961E+01
 -1   1000232 9.99500E+00 0.00000E+00 9.01961E+01
 -1   1000233 1.00050E+01 0.00000E+00 9.21569E+01
 -1   1000235 9.99500E+00 0.00000E+00 9.21569E+01
 -1   1000236 1.00050E+01 0.00000E+00 9.41176E+01
 -1   1000238 9.99500E+00 0.00000E+00 9.41176E+01
 -1   1000239 1.00050E+01 0.00000E+00 9.60784E+01
 -1   1000241 9.99500E+00 0.00000E+00 9.60784E+01
 -1   1000242 1.00050E+01 0.00000E+00 9.80392E+01
 -1   1000244 9.99500E+00 0.00000E+00 9.80392E+01
 -1   1000245 9.78637E+00 2.08016E+00 1.00000E+02
 -1   1000247 9.77659E+00 2.07808E+00 1.00000E+02
 -1   1000248 9.14002E+00 4.06940E+00 1.00000E+02
 -1   1000250 9.13089E+00 4.06533E+00 1.00000E+02
 -1   1000251 8.09422E+00 5.88079E+00 1.00000E+02
 -1   1000253 8.08612E+00 5.87491E+00 1.00000E+02
 -1   1000254 6.69465E+00 7.43516E+00 1.00000E+02
 -1   1000256 6.68796E+00 7.42773E+00 1.00000E+02
 -1   1000257 5.00250E+00 8.66458E+00 1.00000E+02
 -1   1000259 4.99750E+00 8.65592E+00 1.00000E+02
 -1   1000260 3.09172E+00 9.51532E+00 1.00000E+02
 -1   1000262 3.08862E+00 9.50581E+00 1.00000E+02
 -1   1000263 1.04581E+00 9.95019E+00 1.00000E+02
 -1   1000265 1.04476E+00 9.94025E+00 1.00000E+02
 -1   1000266-1.04581E+00 9.95019E+00 1.00000E+02
 -1   1000268-1.04476E+00 9.94025E+00 1.00000E+02
 -1   1000269-3.09172E+00 9.51532E+00 1.00000E+02
 -1   1000271-3.08862E+00 9.50581E+00 1.00000E+02
 -1   1000272-5.00250E+00 8.66458E+00 1.00000E+02
 -1   1000274-4.99750E+00 8.65592E+00 1.00000E+02
 -1   1000275-6.69465E+00 7.43516E+00 1.00000E+02
 -1   1000277-6.68796E+00 7.42773E+00 1.00000E+02
 -1   1000278-8.09422E+00 5.88079E+00 1.00000E+02
 -1   1000280-8.08612E+00 5.87491E+00 1.00000E+02
 -1   1000281-9.14002E+00 4.06940E+00 1.00000E+02
 -1   1000283-9.13089E+00 4.06533E+00 1.00000E+02
 -1   1000284-9.78637E+00 2.08016E+00 1.00000E+02
 -1   1000286-9.77659E+00 2.07808E+00 1.00000E+02
 -1   1000287-1.00050E+01-2.09850E-14 1.00000E+02
 -1   1000289-9.99500E+00-2.09746E-14 1.00000E+02
 -1   1000290-9.78637E+00-2.08016E+00 1.00000E+02
 -1   1000292-9.77659E+00-2.07808E+00 1.00000E+02
 -1   1000293-9.14002E+00-4.06940E+00 1.00000E+02
 -1   1000295-9.13089E+00-4.06533E+00 1.00000E+02
 -1   1000296-8.09422E+00-5.88079E+00 1.00000E+02
 -1   1000298-8.08612E+00-5.87491E+00 1.00000E+02
 -1   1000299-6.69465E+00-7.43516E+00 1.00000E+02
 -1   1000301-6.68796E+00-7.42773E+00 1.00000E+02
 -1   1000302-5.00250E+00-8.66458E+00 1.00000E+02
 -1   1000304-4.99750E+00-8.65592E+00 1.00000E+02
 -1   1000305-3.09172E+00-9.51532E+00 1.00000E+02
 -1   1000307-3.08862E+00-9.50581E+00 1.00000E+02
 -1   1000308-1.04581E+00-9.95019E+00 1.00000E+02
 -1   1000310-1.04476E+00-9.94025E+00 1.00000E+02
 -1   1000311 1.04581E+00-9.95019E+00 1.00000E+02
 -1   1000313 1.04476E+00-9.94025E+00 1.00000E+02
 -1   1000314 3.09172E+00-9.51532E+00 1.00000E+02
 -1   1000316 3.08862E+00-9.50581E+00 1.00000E+02
 -1   1000317 5.00250E+00-8.66458E+00 1.00000E+02
 -1   1000319 4.99750E+00-8.65592E+00 1.00000E+02
 -1   1000320 6.69465E+00-7.43516E+00 1.00000E+02
 -1   1000322 6.68796E+00-7.42773E+00 1.00000E+02
 -1   1000323 8.09422E+00-5.88079E+00 1.00000E+02
 -1   1000325 8.08612E+00-5.87491E+00 1.00000E+02
 -1   1000326 9.14002E+00-4.06940E+00 1.00000E+02
 -1   1000328 9.13089E+00-4.06533E+00 1.00000E+02
 -1   1000329 9.78637E+00-2.08016E+00 1.00000E+02
 -1   1000331 9.77659E+00-2.07808E+00 1.00000E+02
 -1   1000332 9.78637E+00 2.08016E+00 1.96078E+00
 -1   1000334 9.77659E+00 2.07808E+00 1.96078E+00
 -1   1000335 9.78637E+00 2.08016E+00 3.92157E+00
 -1   1000337 9.77659E+00 2.07808E+00 3.92157E+00
 -1   1000338 9.78637E+00 2.08016E+00 5.88235E+00
 -1   1000340 9.77659E+00 2.07808E+00 5.88235E+00
 -1   1000341 9.78637E+00 2.08016E+00 7.84314E+00
 -1   1000343 9.77659E+00 2.07808E+00 7.84314E+00
 -1   1000344 9.78637E+00 2.08016E+00 9.80392E+00
 -1   1000346 9.77659E+00 2.07808E+00 9.80392E+00
 -1   1000347 9.78637E+00 2.08016E+00 1.17647E+01
 -1   1000349 9.77659E+00 2.07808E+00 1.17647E+01
 -1   1000350 9.78637E+00 2.08016E+00 1.37255E+01
 -1   1000352 9.77659E+00 2.07808E+00 1.37255E+01
 -1   1000353 9.78637E+00 2.08016E+00 1.56863E+01
 -1   1000355 9.77659E+00 2.07808E+00 1.56863E+01
 -1   1000356 9.78637E+00 2.08016E+00 1.76471E+01
 -1   1000358 9.77659E+00 2.07808E+00 1.76471E+01
 -1   1000359 9.78637E+00 2.08016E+00 1.96078E+01
 -1   1000361 9.77659E+00 2.07808E+00 1.96078E+01
 -1   1000362 9.78637E+00 2.08016E+00 2.15686E+01
 -1   1000364 9.77659E+00 2.07808E+00 2.15686E+01
 -1   1000365 9.78637E+00 2.08016E+00 2.35294E+01
 -1   1000367 9.77659E+00 2.07808E+00 2.35294E+01
 -1   1000368 9.78637E+00 2.08016E+00 2.54902E+01
 -1   1000370 9.77659E+00 2.07808E+00 2.54902E+01
 -1   1000371 9.78637E+00 2.08016E+00 2.74510E+01
 -1   1000373 9.77659E+00 2.07808E+00 2.74510E+01
 -1   1000374 9.78637E+00 2.08016E+00 2.94118E+01
 -1   1000376 9.77659E+00 2.07808E+00 2.94118E+01
 -1   1000377 9.78637E+00 2.08016E+00 3.13725E+01
 -1   1000379 9.77659E+00 2.07808E+00 3.13725E+01
 -1   1000380 9.78637E+00 2.08016E+00 3.33333E+01
 -1   1000382 9.77659E+00 2.07808E+00 3.33333E+01
 -1   1000383 9.78637E+00 2.08016E+00 3.52941E+01
 -1   1000385 9.77659E+00 2.07808E+00 3.52941E+01
 -1   1000386 9.78637E+00 2.08016E+00 3.72549E+01
 -1   1000388 9.77659E+00 2.07808E+00 3.72549E+01
 -1   1000389 9.78637E+00 2.08016E+00 3.92157E+01
 -1   1000391 9.77659E+00 2.07808E+00 3.92157E+01
 -1   1000392 9.78637E+00 2.08016E+00 4.11765E+01
 -1   1000394 9.77659E+00 2.07808E+00 4.11765E+01
 -1   1000395 9.78637E+00 2.08016E+00 4.31373E+01
 -1   1000397 9.77659E+00 2.07808E+00 4.31373E+01
 -1   1000398 9.78637E+00 2.08016E+00 4.50980E+01
 -1   1000400 9.77659E+00 2.07808E+00 4.50980E+01
 -1   1000401 9.78637E+00 2.08016E+00 4.70588E+01
 -1   1000403 9.77659E+00 2.07808E+00 4.70588E+01
 -1   1000404 9.78637E+00 2.08016E+00 4.90196E+01
 -1   1000406 9.77659E+00 2.07808E+00 4.90196E+01
 -1   1000407 9.78637E+00 2.08016E+00 5.09804E+01
 -1   1000409 9.77659E+00 2.07808E+00 5.09804E+01
 -1   1000410 9.78637E+00 2.08016E+00 5.29412E+01
 -1   1000412 9.77659E+00 2.07808E+00 5.29412E+01
 -1   1000413 9.78637E+00 2.08016E+00 5.49020E+01
 -1   1000415 9.77659E+00 2.07808E+00 5.49020E+01
 -1   1000416 9.78637E+00 2.08016E+00 5.68627E+01
 -1   1000418 9.77659E+00 2.07808E+00 5.68627E+01
 -1   1000419 9.78637E+00 2.08016E+00 5.88235E+01
 -1   1000421 9.77659E+00 2.07808E+00 5.88235E+01
 -1   1000422 9.78637E+00 2.08016E+00 6.07843E+01
 -1   1000424 9.77659E+00 2.07808E+00 6.07843E+01
 -1   1000425 9.78637E+00 2.08016E+00 6.27451E+01
 -1   1000427 9.77659E+00 2.07808E+00 6.27451E+01
 -1   1000428 9.78637E+00 2.08016E+00 6.47059E+01
 -1   1000430 9.77659E+00 2.07808E+00 6.47059E+01
 -1   1000431 9.78637E+00 2.08016E+00 6.66667E+01
 -1   1000433 9.77659E+00 2.07808E+00 6.66667E+01
 -1   1000434 9.78637E+00 2.08016E+00 6.86274E+01
 -1   1000436 9.77659E+00 2.07808E+00 6.86274E+01
 -1   1000437 9.78637E+00 2.08016E+00 7.05882E+01
 -1   1000439 9.77659E+00 2.07808E+00 7.05882E+01
 -1   1000440 9.78637E+00 2.08016E+00 7.25490E+01
 -1   1000442 9.77659E+00 2.07808E+00 7.25490E+01
 -1   1000443 9.78637E+00 2.08016E+00 7.45098E+01
 -1   1000445 9.77659E+00 2.07808E+00 7.45098E+01
 -1   1000446 9.78637E+00 2.08016E+00 7.64706E+01
 -1   1000448 9.77659E+00 2.07808E+00 7.64706E+01
 -1   1000449 9.78637E+00 2.08016E+00 7.84314E+01
 -1   1000451 9.77659E+00 2.07808E+00 7.84314E+01
 -1   1000452 9.78637E+00 2.08016E+00 8.03922E+01
 -1   1000454 9.77659E+00 2.07808E+00 8.03922E+01
 -1   1000455 9.78637E+00 2.08016E+00 8.23529E+01
 -1   1000457 9.77659E+00 2.07808E+00 8.23529E+01
 -1   1000458 9.78637E+00 2.08016E+00 8.43137E+01
 -1   1000460 9.77659E+00 2.07808E+00 8.43137E+01
 -1   1000461 9.78637E+00 2.08016E+00 8.62745E+01
 -1   1000463 9.77659E+00 2.07808E+00 8.62745E+01
 -1   1000464 9.78637E+00 2.08016E+00 8.82353E+01
 -1   1000466 9.77659E+00 2.07808E+00 8.82353E+01
 -1   1000467 9.78637E+00 2.08016E+00 9.01961E+01
 -1   1000469 9.77659E+00 2.07808E+00 9.01961E+01
 -1   1000470 9.78637E+00 2.08016E+00 9.21569E+01
 -1   1000472 9.77659E+00 2.07808E+00 9.21569E+01
 -1   1000473 9.78637E+00 2.08016E+00 9.41176E+01
 -1   1000475 9.77659E+00 2.07808E+00 9.41176E+01
 -1   1000476 9.78637E+00 2.08016E+00 9.60784E+01
 -1   1000478 9.77659E+00 2.07808E+00 9.60784E+01
 -1   1000479 9.78637E+00 2.08016E+00 9.80392E+01
 -1   1000481 9.77659E+00 2.07808E+00 9.80392E+01
 -1   1000482 9.14002E+00 4.06940E+00 1.96078E+00
 -1   1000484 9.13089E+00 4.06533E+00 1.96078E+00
 -1   1000485 9.14002E+00 4.06940E+00 3.92157E+00
 -1   1000487 9.13089E+00 4.06533E+00 3.92157E+00
 -1   1000488 9.14002E+00 4.06940E+00 5.88235E+00
 -1   1000490 9.13089E+00 4.06533E+00 5.88235E+00
 -1   1000491 9.14002E+00 4.06940E+00 7.84314E+00
 -1   1000493 9.13089E+00 4.06533E+00 7.84314E+00
 -1   1000494 9.14002E+00 4.06940E+00 9.80392E+00
 -1   1000496 9.13089E+00 4.06533E+00 9.80392E+00
 -1   1000497 9.14002E+00 4.06940E+00 1.17647E+01
 -1   1000499 9.13089E+00 4.06533E+00 1.17647E+01
 -1   1000500 9.14002E+00 4.06940E+00 1.37255E+01
 -1   1000502 9.13089E+00 4.06533E+00 1.37255E+01
 -1   1000503 9.14002E+00 4.06940E+00 1.56863E+01
 -1   1000505 9.13089E+00 4.06533E+00 1.56863E+01
 -1   1000506 9.14002E+00 4.06940E+00 1.76471E+01
 -1   1000508 9.13089E+00 4.06533E+00 1.76471E+01
 -1   1000509 9.14002E+00 4.06940E+00 1.96078E+01
 -1   1000511 9.13089E+00 4.06533E+00 1.96078E+01
 -1   1000512 9.14002E+00 4.06940E+00 2.15686E+01
 -1   1000514 9.13089E+00 4.06533E+00 2.15686E+01
 -1   1000515 9.14002E+00 4.06940E+00 2.35294E+01
 -1   1000517 9.13089E+00 4.06533E+00 2.35294E+01
 -1   1000518 9.14002E+00 4.06940E+00 2.54902E+01
 -1   1000520 9.13089E+00 4.06533E+00 2.54902E+01
 -1   1000521 9.14002E+00 4.06940E+00 2.74510E+01
 -1   1000523 9.13089E+00 4.06533E+00 2.74510E+01
 -1   1000524 9.14002E+00 4.06940E+00 2.94118E+01
 -1   1000526 9.13089E+00 4.06533E+00 2.94118E+01
 -1   1000527 9.14002E+00 4.06940E+00 3.13725E+01
 -1   1000529 9.13089E+00 4.06533E+00 3.13725E+01
 -1   1000530 9.14002E+00 4.06940E+00 3.33333E+01
 -1   1000532 9.13089E+00 4.06533E+00 3.33333E+01
 -1   1000533 9.14002E+00 4.06940E+00 3.52941E+01
 -1   1000535 9.13089E+00 4.06533E+00 3.52941E+01
 -1   1000536 9.14002E+00 4.06940E+00 3.72549E+01
 -1   1000538 9.13089E+00 4.06533E+00 3.72549E+01
 -1   1000539 9.14002E+00 4.06940E+00 3.92157E+01
 -1   1000541 9.13089E+00 4.06533E+00 3.92157E+01
 -1   1000542 9.14002E+00 4.06940E+00 4.11765E+01
 -1   1000544 9.13089E+00 4.06533E+00 4.11765E+01
 -1   1000545 9.14002E+00 4.06940E+00 4.31373E+01
 -1   1000547 9.13089E+00 4.06533E+00 4.31373E+01
 -1   1000548 9.14002E+00 4.06940E+00 4.50980E+01
 -1   1000550 9.13089E+00 4.06533E+00 4.50980E+01
 -1   1000551 9.14002E+00 4.06940E+00 4.70588E+01
 -1   1000553 9.13089E+00 4.06533E+00 4.70588E+01
 -1   1000554 9.14002E+00 4.06940E+00 4.90196E+01
 -1   1000556 9.13089E+00 4.06533E+00 4.90196E+01
 -1   1000557 9.14002E+00 4.06940E+00 5.09804E+01
 -1   1000559 9.13089E+00 4.06533E+00 5.09804E+01
 -1   1000560 9.14002E+00 4.06940E+00 5.29412E+01
 -1   1000562 9.13089E+00 4.06533E+00 5.29412E+01
 -1   1000563 9.14002E+00 4.06940E+00 5.49020E+01
 -1   1000565 9.13089E+00 4.06533E+00 5.49020E+01
 -1   1000566 9.14002E+00 4.06940E+00 5.68627E+01
 -1   1000568 9.13089E+00 4.06533E+00 5.68627E+01
 -1   1000569 9.14002E+00 4.06940E+00 5.88235E+01
 -1   1000571 9.13089E+00 4.06533E+00 5.88235E+01
 -1   1000572 9.14002E+00 4.06940E+00 6.07843E+01
 -1   1000574 9.13089E+00 4.06533E+00 6.07843E+01
 -1   1000575 9.14002E+00 4.06940E+00 6.27451E+01
 -1   1000577 9.13089E+00 4.06533E+00 6.27451E+01
 -1   1000578 9.14002E+00 4.06940E+00 6.47059E+01
 -1   1000580 9.13089E+00 4.06533E+00 6.47059E+01
 -1   1000581 9.14002E+00 4.06940E+00 6.66667E+01
 -1   1000583 9.13089E+00 4.06533E+00 6.66667E+01
 -1   1000584 9.14002E+00 4.06940E+00 6.86274E+01
 -1   1000586 9.13089E+00 4.06533E+00 6.86274E+01
 -1   1000587 9.14002E+00 4.06940E+00 7.05882E+01
 -1   1000589 9.13089E+00 4.06533E+00 7.05882E+01
 -1   1000590 9.14002E+00 4.06940E+00 7.25490E+01
 -1   1000592 9.13089E+00 4.06533E+00 7.25490E+01
 -1   1000593 9.14002E+00 4.06940E+00 7.45098E+01
 -1   1000595 9.13089E+00 4.06533E+00 7.45098E+01
 -1   1000596 9.14002E+00 4.06940E+00 7.64706E+01
 -1   1000598 9.13089E+00 4.06533E+00 7.64706E+01
 -1   1000599 9.14002E+00 4.06940E+00 7.84314E+01
 -1   1000601 9.13089E+00 4.06533E+00 7.84314E+01
 -1   1000602 9.14002E+00 4.06940E+00 8.03922E+01
 -1   1000604 9.13089E+00 4.06533E+00 8.03922E+01
 -1   1000605 9.14002E+00 4.06940E+00 8.23529E+01
 -1   1000607 9.13089E+00 4.06533E+00 8.23529E+01
 -1   1000608 9.14002E+00 4.06940E+00 8.43137E+01
 -1   1000610 9.13089E+00 4.06533E+00 8.43137E+01
 -1   1000611 9.14002E+00 4.06940E+00 8.62745E+01
 -1   1000613 9.13089E+00 4.06533E+00 8.62745E+01
 -1   1000614 9.14002E+00 4.06940E+00 8.82353E+01
 -1   1000616 9.13089E+00 4.06533E+00 8.82353E+01
 -1   1000617 9.14002E+00 4.06940E+00 9.01961E+01
 -1   1000619 9.13089E+00 4.06533E+00 9.01961E+01
 -1   1000620 9.14002E+00 4.06940E+00 9.21569E+01
 -1   1000622 9.13089E+00 4.06533E+00 9.21569E+01
 -1   1000623 9.14002E+00 4.06940E+00 9.41176E+01
 -1   1000625 9.13089E+00 4.06533E+00 9.41176E+01
 -1   1000626 9.14002E+00 4.06940E+00 9.60784E+01
 -1   1000628 9.13089E+00 4.06533E+00 9.60784E+01
 -1   1000629 9.14002E+00 4.06940E+00 9.80392E+01
 -1   1000631 9.13089E+00 4.06533E+00 9.80392E+01
 -1   1000632 8.09422E+00 5.88079E+00 1.96078E+00
 -1   1000634 8.08612E+00 5.87491E+00 1.96078E+00
 -1   1000635 8.09422E+00 5.88079E+00 3.92157E+00
 -1   1000637 8.08612E+00 5.87491E+00 3.92157E+00
 -1   1000638 8.09422E+00 5.88079E+00 5.88235E+00
 -1   1000640 8.08612E+00 5.87491E+00 5.88235E+00
 -1   1000641 8.09422E+00 5.88079E+00 7.84314E+00
 -1   1000643 8.08612E+00 5.87491E+00 7.84314E+00
 -1   1000644 8.09422E+00 5.88079E+00 9.80392E+00
 -1   1000646 8.08612E+00 5.87491E+00 9.80392E+00
 -1   1000647 8.09422E+00 5.88079E+00 1.17647E+01
 -1   1000649 8.08612E+00 5.87491E+00 1.17647E+01
 -1   1000650 8.09422E+00 5.88079E+00 1.37255E+01
 -1   1000652 8.08612E+00 5.87491E+00 1.37255E+01
 -1   1000653 8.09422E+00 5.88079E+00 1.56863E+01
 -1   1000655 8.08612E+00 5.87491E+00 1.56863E+01
 -1   1000656 8.09422E+00 5.88079E+00 1.76471E+01
 -1   1000658 8.08612E+00 5.87491E+00 1.76471E+01
 -1   1000659 8.09422E+00 5.88079E+00 1.96078E+01
 -1   1000661 8.08612E+00 5.87491E+00 1.96078E+01
 -1   1000662 8.09422E+00 5.88079E+00 2.15686E+01
 -1   1000664 8.08612E+00 5.87491E+00 2.15686E+01
 -1   1000665 8.09422E+00 5.88079E+00 2.35294E+01
 -1   1000667 8.08612E+00 5.87491E+00 2.35294E+01
 -1   1000668 8.09422E+00 5.88079E+00 2.54902E+01
 -1   1000670 8.08612E+00 5.87491E+00 2.54902E+01
 -1   1000671 8.09422E+00 5.88079E+00 2.74510E+01
 -1   1000673 8.08612E+00 5.87491E+00 2.74510E+01
 -1   1000674 8.09422E+00 5.88079E+00 2.94118E+01
 -1   1000676 8.08612E+00 5.87491E+00 2.94118E+01
 -1   1000677 8.09422E+00 5.88079E+00 3.13725E+01
 -1   1000679 8.08612E+00 5.87491E+00 3.13725E+01
 -1   1000680 8.09422E+00 5.88079E+00 3.33333E+01
 -1   1000682 8.08612E+00 5.87491E+00 3.33333E+01
 -1   1000683 8.09422E+00 5.88079E+00 3.52941E+01
 -1   1000685 8.08612E+00 5.87491E+00 3.52941E+01
 -1   1000686 8.09422E+00 5.88079E+00 3.72549E+01
 -1   1000688 8.08612E+00 5.87491E+00 3.72549E+01
 -1   1000689 8.09422E+00 5.88079E+00 3.92157E+01
 -1   1000691 8.08612E+00 5.87491E+00 3.92157E+01
 -1   1000692 8.09422E+00 5.88079E+00 4.11765E+01
 -1   1000694 8.08612E+00 5.87491E+00 4.11765E+01
 -1   1000695 8.09422E+00 5.88079E+00 4.31373E+01
 -1   1000697 8.08612E+00 5.87491E+00 4.31373E+01
 -1   1000698 8.09422E+00 5.88079E+00 4.50980E+01
 -1   1000700 8.08612E+00 5.87491E+00 4.50980E+01
 -1   1000701 8.09422E+00 5.88079E+00 4.70588E+01
 -1   1000703 8.08612E+00 5.87491E+00 4.70588E+01
 -1   1000704 8.09422E+00 5.88079E+00 4.90196E+01
 -1   1000706 8.08612E+00 5.87491E+00 4.90196E+01
 -1   1000707 8.09422E+00 5.88079E+00 5.09804E+01
 -1   1000709 8.08612E+00 5.87491E+00 5.09804E+01
 -1   1000710 8.09422E+00 5.88079E+00 5.29412E+01
 -1   1000712 8.08612E+00 5.87491E+00 5.29412E+01
 -1   1000713 8.09422E+00 5.88079E+00 5.49020E+01
 -1   1000715 8.08612E+00 5.87491E+00 5.49020E+01
 -1   1000716 8.09422E+00 5.88079E+00 5.68627E+01
 -1   1000718 8.08612E+00 5.87491E+00 5.68627E+01
 -1   1000719 8.09422E+00 5.88079E+00 5.88235E+01
 -1   1000721 8.08612E+00 5.87491E+00 5.88235E+01
 -1   1000722 8.09422E+00 5.88079E+00 6.07843E+01
 -1   1000724 8.08612E+00 5.87491E+00 6.07843E+01
 -1   1000725 8.09422E+00 5.88079E+00 6.27451E+01
 -1   1000727 8.08612E+00 5.87491E+00 6.27451E+01
 -1   1000728 8.09422E+00 5.88079E+00 6.47059E+01
 -1   1000730 8.08612E+00 5.87491E+00 6.47059E+01
 -1   1000731 8.09422E+00 5.88079E+00 6.66667E+01
 -1   1000733 8.08612E+00 5.87491E+00 6.66667E+01
 -1   1000734 8.09422E+00 5.88079E+00 6.86274E+01
 -1   1000736 8.08612E+00 5.87491E+00 6.86274E+01
 -1   1000737 8.09422E+00 5.88079E+00 7.05882E+01
 -1   1000739 8.08612E+00 5.87491E+00 7.05882E+01
 -1   1000740 8.09422E+00 5.88079E+00 7.25490E+01
 -1   1000742 8.08612E+00 5.87491E+00 7.25490E+01
 -1   1000743 8.09422E+00 5.88079E+00 7.45098E+01
 -1   1000745 8.08612E+00 5.87491E+00 7.45098E+01
 -1   1000746 8.09422E+00 5.88079E+00 7.64706E+01
 -1   1000748 8.08612E+00 5.87491E+00 7.64706E+01
 -1   1000749 8.09422E+00 5.88079E+00 7.84314E+01
 -1   1000751 8.08612E+00 5.87491E+00 7.84314E+01
 -1   1000752 8.09422E+00 5.88079E+00 8.03922E+01
 -1   1000754 8.08612E+00 5.87491E+00 8.03922E+01
 -1   1000755 8.09422E+00 5.88079E+00 8.23529E+01
 -1   1000757 8.08612E+00 5.87491E+00 8.23529E+01
 -1   1000758 8.09422E+00 5.88079E+00 8.43137E+01
 -1   1000760 8.08612E+00 5.87491E+00 8.43137E+01
 -1   1000761 8.09422E+00 5.88079E+00 8.62745E+01
 -1   1000763 8.08612E+00 5.87491E+00 8.62745E+01
 -1   1000764 8.09422E+00 5.88079E+00 8.82353E+01
 -1   1000766 8.08612E+00 5.87491E+00 8.82353E+01
 -1   1000767 8.09422E+00 5.88079E+00 9.01961E+01
 -1   1000769 8.08612E+00 5.87491E+00 9.01961E+01
 -1   1000770 8.09422E+00 5.88079E+00 9.21569E+01
 -1   1000772 8.08612E+00 5.87491E+00 9.21569E+01
 -1   1000773 8.09422E+00 5.88079E+00 9.41176E+01
 -1   1000775 8.08612E+00 5.87491E+00 9.41176E+01
 -1   1000776 8.09422E+00 5.88079E+00 9.60784E+01
 -1   1000778 8.08612E+00 5.87491E+00 9.60784E+01
 -1   1000779 8.09422E+00 5.88079E+00 9.80392E+01
 -1   1000781 8.08612E+00 5.87491E+00 9.80392E+01
 -1   1000782 6.69465E+00 7.43516E+00 1.96078E+00
 -1   1000784 6.68796E+00 7.42773E+00 1.96078E+00
 -1   1000785 6.69465E+00 7.43516E+00 3.92157E+00
 -1   1000787 6.68796E+00 7.42773E+00 3.92157E+00
 -1   1000788 6.69465E+00 7.43516E+00 5.88235E+00
 -1   1000790 6.68796E+00 7.42773E+00 5.88235E+00
 -1   1000791 6.69465E+00 7.43516E+00 7.84314E+00
 -1   1000793 6.68796E+00 7.42773E+00 7.84314E+00
 -1   1000794 6.69465E+00 7.43516E+00 9.80392E+00
 -1   1000796 6.68796E+00 7.42773E+00 9.80392E+00
 -1   1000797 6.69465E+00 7.43516E+00 1.17647E+01
 -1   1000799 6.68796E+00 7.42773E+00 1.17647E+01
 -1   1000800 6.69465E+00 7.43516E+00 1.37255E+01
 -1   1000802 6.68796E+00 7.42773E+00 1.37255E+01
 -1   1000803 6.69465E+00 7.43516E+00 1.56863E+01
 -1   1000805 6.68796E+00 7.42773E+00 1.56863E+01
 -1   1000806 6.69465E+00 7.43516E+00 1.76471E+01
 -1   1000808 6.68796E+00 7.42773E+00 1.76471E+01
 -1   1000809 6.69465E+00 7.43516E+00 1.96078E+01
 -1   1000811 6.68796E+00 7.42773E+00 1.96078E+01
 -1   1000812 6.69465E+00 7.43516E+00 2.15686E+01
 -1   1000814 6.68796E+00 7.42773E+00 2.15686E+01
 -1   1000815 6.69465E+00 7.43516E+00 2.35294E+01
 -1   1000817 6.68796E+00 7.42773E+00 2.35294E+01
 -1   1000818 6.69465E+00 7.43516E+00 2.54902E+01
 -1   1000820 6.68796E+00 7.42773E+00 2.54902E+01
 -1   1000821 6.69465E+00 7.43516E+00 2.74510E+01
 -1   1000823 6.68796E+00 7.42773E+00 2.74510E+01
 -1   1000824 6.69465E+00 7.43516E+00 2.94118E+01
 -1   1000826 6.68796E+00 7.42773E+00 2.94118E+01
 -1   1000827 6.69465E+00 7.43516E+00 3.13725E+01
 -1   1000829 6.68796E+00 7.42773E+00 3.13725E+01
 -1   1000830 6.69465E+00 7.43516E+00 3.33333E+01
 -1   1000832 6.68796E+00 7.42773E+00 3.33333E+01
 -1   1000833 6.69465E+00 7.43516E+00 3.52941E+01
 -1   1000835 6.68796E+00 7.42773E+00 3.52941E+01
 -1   1000836 6.69465E+00 7.43516E+00 3.72549E+01
 -1   1000838 6.68796E+00 7.42773E+00 3.72549E+01
 -1   1000839 6.69465E+00 7.43516E+00 3.92157E+01
 -1   1000841 6.68796E+00 7.42773E+00 3.92157E+01
 -1   1000842 6.69465E+00 7.43516E+00 4.11765E+01
 -1   1000844 6.68796E+00 7.42773E+00 4.11765E+01
 -1   1000845 6.69465E+00 7.43516E+00 4.31373E+01
 -1   1000847 6.68796E+00 7.42773E+00 4.31373E+01
 -1   1000848 6.69465E+00 7.43516E+00 4.50980E+01
 -1   1000850 6.68796E+00 7.42773E+00 4.50980E+01
 -1   1000851 6.69465E+00 7.43516E+00 4.70588E+01
 -1   1000853 6.68796E+00 7.42773E+00 4.70588E+01
 -1   1000854 6.69465E+00 7.43516E+00 4.90196E+01
 -1   1000856 6.68796E+00 7.42773E+00 4.90196E+01
 -1   1000857 6.69465E+00 7.43516E+00 5.09804E+01
 -1   1000859 6.68796E+00 7.42773E+00 5.09804E+01
 -1   1000860 6.69465E+00 7.43516E+00 5.29412E+01
 -1   1000862 6.68796E+00 7.42773E+00 5.29412E+01
 -1   1000863 6.69465E+00 7.43516E+00 5.49020E+01
 -1   1000865 6.68796E+00 7.42773E+00 5.49020E+01
 -1   1000866 6.69465E+00 7.43516E+00 5.68627E+01
 -1   1000868 6.68796E+00 7.42773E+00 5.68627E+01
 -1   1000869 6.69465E+00 7.43516E+00 5.88235E+01
 -1   1000871 6.68796E+00 7.42773E+00 5.88235E+01
 -1   1000872 6.69465E+00 7.43516E+00 6.07843E+01
 -1   1000874 6.68796E+00 7.42773E+00 6.07843E+01