    1C
    1U disc.inp                                                         
    1UUSER                                                              
    1UDATE              25.february.2021                                
    1UTIME              09:40:12                                        
    1UHOST                                                              
    1UPGM               CalculiX                                        
    1UVERSION           Version 2.17                             
    1UCOMPILETIME       Thu Jul 23 21:29:36 CEST 2020                    
    1UDIR                                                               
    1UDBN                                                               
    1UMAT    1STEEL                                                     
    2C                          4092                                     1
 -1         1 2.50000E+01 0.00000E+00 0.00000E+00
 -1         2 1.00000E+02 0.00000E+00 0.00000E+00
 -1         3 6.12323E-15 1.00000E+02 0.00000E+00
 -1         4 1.53081E-15 2.50000E+01 0.00000E+00
 -1         5 2.50000E+01 0.00000E+00 1.00000E+01
 -1         6 1.00000E+02 0.00000E+00 1.00000E+01
 -1         7 6.12323E-15 1.00000E+02 1.00000E+01
 -1         8 1.53081E-15 2.50000E+01 1.00000E+01
 -1         9 2.75000E+01 0.00000E+00 0.00000E+00
 -1        10 3.00000E+01 0.00000E+00 0.00000E+00
 -1        11 3.25000E+01 0.00000E+00 0.00000E+00
 -1        12 3.50000E+01 0.00000E+00 0.00000E+00
 -1        13 3.75000E+01 0.00000E+00 0.00000E+00
 -1        14 4.00000E+01 0.00000E+00 0.00000E+00
 -1        15 4.25000E+01 0.00000E+00 0.00000E+00
 -1        16 4.50000E+01 0.00000E+00 0.00000E+00
 -1        17 4.75000E+01 0.00000E+00 0.00000E+00
 -1        18 5.00000E+01 0.00000E+00 0.00000E+00
 -1        19 5.25000E+01 0.00000E+00 0.00000E+00
 -1        20 5.50000E+01 0.00000E+00 0.00000E+00
 -1        21 5.75000E+01 0.00000E+00 0.00000E+00
 -1        22 6.00000E+01 0.00000E+00 0.00000E+00
 -1        23 6.25000E+01 0.00000E+00 0.00000E+00
 -1        24 6.50000E+01 0.00000E+00 0.00000E+00
 -1        25 6.75000E+01 0.00000E+00 0.00000E+00
 -1        26 7.00000E+01 0.00000E+00 0.00000E+00
 -1        27 7.25000E+01 0.00000E+00 0.00000E+00
 -1        28 7.50000E+01 0.00000E+00 0.00000E+00
 -1        29 7.75000E+01 0.00000E+00 0.00000E+00
 -1        30 8.00000E+01 0.00000E+00 0.00000E+00
 -1        31 8.25000E+01 0.00000E+00 0.00000E+00
 -1        32 8.50000E+01 0.00000E+00 0.00000E+00
 -1        33 8.75000E+01 0.00000E+00 0.00000E+00
 -1        34 9.00000E+01 0.00000E+00 0.00000E+00
 -1        35 9.25000E+01 0.00000E+00 0.00000E+00
 -1        36 9.50000E+01 0.00000E+00 0.00000E+00
 -1        37 9.75000E+01 0.00000E+00 0.00000E+00
 -1        38 9.87688E+01 1.56434E+01 0.00000E+00
 -1        39 9.51057E+01 3.09017E+01 0.00000E+00
 -1        40 8.91007E+01 4.53991E+01 0.00000E+00
 -1        41 8.09017E+01 5.87785E+01 0.00000E+00
 -1        42 7.07107E+01 7.07107E+01 0.00000E+00
 -1        43 5.87785E+01 8.09017E+01 0.00000E+00
 -1        44 4.53991E+01 8.91007E+01 0.00000E+00
 -1        45 3.09017E+01 9.51057E+01 0.00000E+00
 -1        46 1.56434E+01 9.87688E+01 0.00000E+00
 -1        47 5.97015E-15 9.75000E+01 0.00000E+00
 -1        48 5.81707E-15 9.50000E+01 0.00000E+00
 -1        49 5.66399E-15 9.25000E+01 0.00000E+00
 -1        50 5.51091E-15 9.00000E+01 0.00000E+00
 -1        51 5.35783E-15 8.75000E+01 0.00000E+00
 -1        52 5.20475E-15 8.50000E+01 0.00000E+00
 -1        53 5.05167E-15 8.25000E+01 0.00000E+00
 -1        54 4.89859E-15 8.00000E+01 0.00000E+00
 -1        55 4.74551E-15 7.75000E+01 0.00000E+00
 -1        56 4.59243E-15 7.50000E+01 0.00000E+00
 -1        57 4.43934E-15 7.25000E+01 0.00000E+00
 -1        58 4.28626E-15 7.00000E+01 0.00000E+00
 -1        59 4.13318E-15 6.75000E+01 0.00000E+00
 -1        60 3.98010E-15 6.50000E+01 0.00000E+00
 -1        61 3.82702E-15 6.25000E+01 0.00000E+00
 -1        62 3.67394E-15 6.00000E+01 0.00000E+00
 -1        63 3.52086E-15 5.75000E+01 0.00000E+00
 -1        64 3.36778E-15 5.50000E+01 0.00000E+00
 -1        65 3.21470E-15 5.25000E+01 0.00000E+00
 -1        66 3.06162E-15 5.00000E+01 0.00000E+00
 -1        67 2.90854E-15 4.75000E+01 0.00000E+00
 -1        68 2.75546E-15 4.50000E+01 0.00000E+00
 -1        69 2.60237E-15 4.25000E+01 0.00000E+00
 -1        70 2.44929E-15 4.00000E+01 0.00000E+00
 -1        71 2.29621E-15 3.75000E+01 0.00000E+00
 -1        72 2.14313E-15 3.50000E+01 0.00000E+00
 -1        73 1.99005E-15 3.25000E+01 0.00000E+00
 -1        74 1.83697E-15 3.00000E+01 0.00000E+00
 -1        75 1.68389E-15 2.75000E+01 0.00000E+00
 -1        76 3.91086E+00 2.46922E+01 0.00000E+00
 -1        77 7.72542E+00 2.37764E+01 0.00000E+00
 -1        78 1.13498E+01 2.22752E+01 0.00000E+00
 -1        79 1.46946E+01 2.02254E+01 0.00000E+00
 -1        80 1.76777E+01 1.76777E+01 0.00000E+00
 -1        81 2.02254E+01 1.46946E+01 0.00000E+00
 -1        82 2.22752E+01 1.13498E+01 0.00000E+00
 -1        83 2.37764E+01 7.72542E+00 0.00000E+00
 -1        84 2.46922E+01 3.91086E+00 0.00000E+00
 -1        85 2.75000E+01 0.00000E+00 1.00000E+01
 -1        86 3.00000E+01 0.00000E+00 1.00000E+01
 -1        87 3.25000E+01 0.00000E+00 1.00000E+01
 -1        88 3.50000E+01 0.00000E+00 1.00000E+01
 -1        89 3.75000E+01 0.00000E+00 1.00000E+01
 -1        90 4.00000E+01 0.00000E+00 1.00000E+01
 -1        91 4.25000E+01 0.00000E+00 1.00000E+01
 -1        92 4.50000E+01 0.00000E+00 1.00000E+01
 -1        93 4.75000E+01 0.00000E+00 1.00000E+01
 -1        94 5.00000E+01 0.00000E+00 1.00000E+01
 -1        95 5.25000E+01 0.00000E+00 1.00000E+01
 -1        96 5.50000E+01 0.00000E+00 1.00000E+01
 -1        97 5.75000E+01 0.00000E+00 1.00000E+01
 -1        98 6.00000E+01 0.00000E+00 1.00000E+01
 -1        99 6.25000E+01 0.00000E+00 1.00000E+01
 -1       100 6.50000E+01 0.00000E+00 1.00000E+01
 -1       101 6.75000E+01 0.00000E+00 1.00000E+01
 -1       102 7.00000E+01 0.00000E+00 1.00000E+01
 -1       103 7.25000E+01 0.00000E+00 1.00000E+01
 -1       104 7.50000E+01 0.00000E+00 1.00000E+01
 -1       105 7.75000E+01 0.00000E+00 1.00000E+01
 -1       106 8.00000E+01 0.00000E+00 1.00000E+01
 -1       107 8.25000E+01 0.00000E+00 1.00000E+01
 -1       108 8.50000E+01 0.00000E+00 1.00000E+01
 -1       109 8.75000E+01 0.00000E+00 1.00000E+01
 -1       110 9.00000E+01 0.00000E+00 1.00000E+01
 -1       111 9.25000E+01 0.00000E+00 1.00000E+01
 -1       112 9.50000E+01 0.00000E+00 1.00000E+01
 -1       113 9.75000E+01 0.00000E+00 1.00000E+01
 -1       114 9.87688E+01 1.56434E+01 1.00000E+01
 -1       115 9.51057E+01 3.09017E+01 1.00000E+01
 -1       116 8.91007E+01 4.53991E+01 1.00000E+01
 -1       117 8.09017E+01 5.87785E+01 1.00000E+01
 -1       118 7.07107E+01 7.07107E+01 1.00000E+01
 -1       119 5.87785E+01 8.09017E+01 1.00000E+01
 -1       120 4.53991E+01 8.91007E+01 1.00000E+01
 -1       121 3.09017E+01 9.51057E+01 1.00000E+01
 -1       122 1.56434E+01 9.87688E+01 1.00000E+01
 -1       123 5.97015E-15 9.75000E+01 1.00000E+01
 -1       124 5.81707E-15 9.50000E+01 1.00000E+01
 -1       125 5.66399E-15 9.25000E+01 1.00000E+01
 -1       126 5.51091E-15 9.00000E+01 1.00000E+01
 -1       127 5.35783E-15 8.75000E+01 1.00000E+01
 -1       128 5.20475E-15 8.50000E+01 1.00000E+01
 -1       129 5.05167E-15 8.25000E+01 1.00000E+01
 -1       130 4.89859E-15 8.00000E+01 1.00000E+01
 -1       131 4.74551E-15 7.75000E+01 1.00000E+01
 -1       132 4.59243E-15 7.50000E+01 1.00000E+01
 -1       133 4.43934E-15 7.25000E+01 1.00000E+01
 -1       134 4.28626E-15 7.00000E+01 1.00000E+01
 -1       135 4.13318E-15 6.75000E+01 1.00000E+01
 -1       136 3.98010E-15 6.50000E+01 1.00000E+01
 -1       137 3.82702E-15 6.25000E+01 1.00000E+01
 -1       138 3.67394E-15 6.00000E+01 1.00000E+01
 -1       139 3.52086E-15 5.75000E+01 1.00000E+01
 -1       140 3.36778E-15 5.50000E+01 1.00000E+01
 -1       141 3.21470E-15 5.25000E+01 1.00000E+01
 -1       142 3.06162E-15 5.00000E+01 1.00000E+01
 -1       143 2.90854E-15 4.75000E+01 1.00000E+01
 -1       144 2.75546E-15 4.50000E+01 1.00000E+01
 -1       145 2.60237E-15 4.25000E+01 1.00000E+01
 -1       146 2.44929E-15 4.00000E+01 1.00000E+01
 -1       147 2.29621E-15 3.75000E+01 1.00000E+01
 -1       148 2.14313E-15 3.50000E+01 1.00000E+01
 -1       149 1.99005E-15 3.25000E+01 1.00000E+01
 -1       150 1.83697E-15 3.00000E+01 1.00000E+01
 -1       151 1.68389E-15 2.75000E+01 1.00000E+01
 -1       152 3.91086E+00 2.46922E+01 1.00000E+01
 -1       153 7.72542E+00 2.37764E+01 1.00000E+01
 -1       154 1.13498E+01 2.22752E+01 1.00000E+01
 -1       155 1.46946E+01 2.02254E+01 1.00000E+01
 -1       156 1.76777E+01 1.76777E+01 1.00000E+01
 -1       157 2.02254E+01 1.46946E+01 1.00000E+01
 -1       158 2.22752E+01 1.13498E+01 1.00000E+01
 -1       159 2.37764E+01 7.72542E+00 1.00000E+01
 -1       160 2.46922E+01 3.91086E+00 1.00000E+01
 -1       161 2.50000E+01 0.00000E+00 9.09091E-01
 -1       162 2.50000E+01 0.00000E+00 1.81818E+00
 -1       163 2.50000E+01 0.00000E+00 2.72727E+00
 -1       164 2.50000E+01 0.00000E+00 3.63636E+00
 -1       165 2.50000E+01 0.00000E+00 4.54545E+00
 -1       166 2.50000E+01 0.00000E+00 5.45455E+00
 -1       167 2.50000E+01 0.00000E+00 6.36364E+00
 -1       168 2.50000E+01 0.00000E+00 7.27273E+00
 -1       169 2.50000E+01 0.00000E+00 8.18182E+00
 -1       170 2.50000E+01 0.00000E+00 9.09091E+00
 -1       171 1.00000E+02 0.00000E+00 9.09091E-01
 -1       172 1.00000E+02 0.00000E+00 1.81818E+00
 -1       173 1.00000E+02 0.00000E+00 2.72727E+00
 -1       174 1.00000E+02 0.00000E+00 3.63636E+00
 -1       175 1.00000E+02 0.00000E+00 4.54545E+00
 -1       176 1.00000E+02 0.00000E+00 5.45455E+00
 -1       177 1.00000E+02 0.00000E+00 6.36364E+00
 -1       178 1.00000E+02 0.00000E+00 7.27273E+00
 -1       179 1.00000E+02 0.00000E+00 8.18182E+00
 -1       180 1.00000E+02 0.00000E+00 9.09091E+00
 -1       181 6.12323E-15 1.00000E+02 9.09091E-01
 -1       182 6.12323E-15 1.00000E+02 1.81818E+00
 -1       183 6.12323E-15 1.00000E+02 2.72727E+00
 -1       184 6.12323E-15 1.00000E+02 3.63636E+00
 -1       185 6.12323E-15 1.00000E+02 4.54545E+00
 -1       186 6.12323E-15 1.00000E+02 5.45455E+00
 -1       187 6.12323E-15 1.00000E+02 6.36364E+00
 -1       188 6.12323E-15 1.00000E+02 7.27273E+00
 -1       189 6.12323E-15 1.00000E+02 8.18182E+00
 -1       190 6.12323E-15 1.00000E+02 9.09091E+00
 -1       191 1.53081E-15 2.50000E+01 9.09091E-01
 -1       192 1.53081E-15 2.50000E+01 1.81818E+00
 -1       193 1.53081E-15 2.50000E+01 2.72727E+00
 -1       194 1.53081E-15 2.50000E+01 3.63636E+00
 -1       195 1.53081E-15 2.50000E+01 4.54545E+00
 -1       196 1.53081E-15 2.50000E+01 5.45455E+00
 -1       197 1.53081E-15 2.50000E+01 6.36364E+00
 -1       198 1.53081E-15 2.50000E+01 7.27273E+00
 -1       199 1.53081E-15 2.50000E+01 8.18182E+00
 -1       200 1.53081E-15 2.50000E+01 9.09091E+00
 -1       201 2.71614E+01 4.30195E+00 0.00000E+00
 -1       202 2.61541E+01 8.49797E+00 0.00000E+00
 -1       203 2.45027E+01 1.24847E+01 0.00000E+00
 -1       204 2.22480E+01 1.61641E+01 0.00000E+00
 -1       205 1.94454E+01 1.94454E+01 0.00000E+00
 -1       206 1.61641E+01 2.22480E+01 0.00000E+00
 -1       207 1.24847E+01 2.45027E+01 0.00000E+00
 -1       208 8.49797E+00 2.61541E+01 0.00000E+00
 -1       209 4.30195E+00 2.71614E+01 0.00000E+00
 -1       210 2.96306E+01 4.69303E+00 0.00000E+00
 -1       211 2.85317E+01 9.27051E+00 0.00000E+00
 -1       212 2.67302E+01 1.36197E+01 0.00000E+00
 -1       213 2.42705E+01 1.76336E+01 0.00000E+00
 -1       214 2.12132E+01 2.12132E+01 0.00000E+00
 -1       215 1.76336E+01 2.42705E+01 0.00000E+00
 -1       216 1.36197E+01 2.67302E+01 0.00000E+00
 -1       217 9.27051E+00 2.85317E+01 0.00000E+00
 -1       218 4.69303E+00 2.96306E+01 0.00000E+00
 -1       219 3.20999E+01 5.08412E+00 0.00000E+00
 -1       220 3.09093E+01 1.00431E+01 0.00000E+00
 -1       221 2.89577E+01 1.47547E+01 0.00000E+00
 -1       222 2.62931E+01 1.91030E+01 0.00000E+00
 -1       223 2.29810E+01 2.29810E+01 0.00000E+00
 -1       224 1.91030E+01 2.62931E+01 0.00000E+00
 -1       225 1.47547E+01 2.89577E+01 0.00000E+00
 -1       226 1.00431E+01 3.09093E+01 0.00000E+00
 -1       227 5.08412E+00 3.20999E+01 0.00000E+00
 -1       228 3.45691E+01 5.47521E+00 0.00000E+00
 -1       229 3.32870E+01 1.08156E+01 0.00000E+00
 -1       230 3.11852E+01 1.58897E+01 0.00000E+00
 -1       231 2.83156E+01 2.05725E+01 0.00000E+00
 -1       232 2.47487E+01 2.47487E+01 0.00000E+00
 -1       233 2.05725E+01 2.83156E+01 0.00000E+00
 -1       234 1.58897E+01 3.11852E+01 0.00000E+00
 -1       235 1.08156E+01 3.32870E+01 0.00000E+00
 -1       236 5.47521E+00 3.45691E+01 0.00000E+00
 -1       237 3.70383E+01 5.86629E+00 0.00000E+00
 -1       238 3.56646E+01 1.15881E+01 0.00000E+00
 -1       239 3.34127E+01 1.70246E+01 0.00000E+00
 -1       240 3.03381E+01 2.20419E+01 0.00000E+00
 -1       241 2.65165E+01 2.65165E+01 0.00000E+00
 -1       242 2.20419E+01 3.03381E+01 0.00000E+00
 -1       243 1.70246E+01 3.34127E+01 0.00000E+00
 -1       244 1.15881E+01 3.56646E+01 0.00000E+00
 -1       245 5.86629E+00 3.70383E+01 0.00000E+00
 -1       246 3.95075E+01 6.25738E+00 0.00000E+00
 -1       247 3.80423E+01 1.23607E+01 0.00000E+00
 -1       248 3.56403E+01 1.81596E+01 0.00000E+00
 -1       249 3.23607E+01 2.35114E+01 0.00000E+00
 -1       250 2.82843E+01 2.82843E+01 0.00000E+00
 -1       251 2.35114E+01 3.23607E+01 0.00000E+00
 -1       252 1.81596E+01 3.56403E+01 0.00000E+00
 -1       253 1.23607E+01 3.80423E+01 0.00000E+00
 -1       254 6.25738E+00 3.95075E+01 0.00000E+00
 -1       255 4.19768E+01 6.64846E+00 0.00000E+00
 -1       256 4.04199E+01 1.31332E+01 0.00000E+00
 -1       257 3.78678E+01 1.92946E+01 0.00000E+00
 -1       258 3.43832E+01 2.49809E+01 0.00000E+00
 -1       259 3.00520E+01 3.00520E+01 0.00000E+00
 -1       260 2.49809E+01 3.43832E+01 0.00000E+00
 -1       261 1.92946E+01 3.78678E+01 0.00000E+00
 -1       262 1.31332E+01 4.04199E+01 0.00000E+00
 -1       263 6.64846E+00 4.19768E+01 0.00000E+00
 -1       264 4.44460E+01 7.03955E+00 0.00000E+00
 -1       265 4.27975E+01 1.39058E+01 0.00000E+00
 -1       266 4.00953E+01 2.04296E+01 0.00000E+00
 -1       267 3.64058E+01 2.64503E+01 0.00000E+00
 -1       268 3.18198E+01 3.18198E+01 0.00000E+00
 -1       269 2.64503E+01 3.64058E+01 0.00000E+00
 -1       270 2.04296E+01 4.00953E+01 0.00000E+00
 -1       271 1.39058E+01 4.27975E+01 0.00000E+00
 -1       272 7.03955E+00 4.44460E+01 0.00000E+00
 -1       273 4.69152E+01 7.43064E+00 0.00000E+00
 -1       274 4.51752E+01 1.46783E+01 0.00000E+00
 -1       275 4.23228E+01 2.15645E+01 0.00000E+00
 -1       276 3.84283E+01 2.79198E+01 0.00000E+00
 -1       277 3.35876E+01 3.35876E+01 0.00000E+00
 -1       278 2.79198E+01 3.84283E+01 0.00000E+00
 -1       279 2.15645E+01 4.23228E+01 0.00000E+00
 -1       280 1.46783E+01 4.51752E+01 0.00000E+00
 -1       281 7.43064E+00 4.69152E+01 0.00000E+00
 -1       282 4.93844E+01 7.82172E+00 0.00000E+00
 -1       283 4.75528E+01 1.54508E+01 0.00000E+00
 -1       284 4.45503E+01 2.26995E+01 0.00000E+00
 -1       285 4.04509E+01 2.93893E+01 0.00000E+00
 -1       286 3.53553E+01 3.53553E+01 0.00000E+00
 -1       287 2.93893E+01 4.04509E+01 0.00000E+00
 -1       288 2.26995E+01 4.45503E+01 0.00000E+00
 -1       289 1.54508E+01 4.75528E+01 0.00000E+00
 -1       290 7.82172E+00 4.93844E+01 0.00000E+00
 -1       291 5.18536E+01 8.21281E+00 0.00000E+00
 -1       292 4.99305E+01 1.62234E+01 0.00000E+00
 -1       293 4.67778E+01 2.38345E+01 0.00000E+00
 -1       294 4.24734E+01 3.08587E+01 0.00000E+00
 -1       295 3.71231E+01 3.71231E+01 0.00000E+00
 -1       296 3.08587E+01 4.24734E+01 0.00000E+00
 -1       297 2.38345E+01 4.67778E+01 0.00000E+00
 -1       298 1.62234E+01 4.99305E+01 0.00000E+00
 -1       299 8.21281E+00 5.18536E+01 0.00000E+00
 -1       300 5.43229E+01 8.60390E+00 0.00000E+00
 -1       301 5.23081E+01 1.69959E+01 0.00000E+00
 -1       302 4.90054E+01 2.49695E+01 0.00000E+00
 -1       303 4.44959E+01 3.23282E+01 0.00000E+00
 -1       304 3.88909E+01 3.88909E+01 0.00000E+00
 -1       305 3.23282E+01 4.44959E+01 0.00000E+00
 -1       306 2.49695E+01 4.90054E+01 0.00000E+00
 -1       307 1.69959E+01 5.23081E+01 0.00000E+00
 -1       308 8.60390E+00 5.43229E+01 0.00000E+00
 -1       309 5.67921E+01 8.99498E+00 0.00000E+00
 -1       310 5.46857E+01 1.77685E+01 0.00000E+00
 -1       311 5.12329E+01 2.61045E+01 0.00000E+00
 -1       312 4.65185E+01 3.37977E+01 0.00000E+00
 -1       313 4.06586E+01 4.06586E+01 0.00000E+00
 -1       314 3.37977E+01 4.65185E+01 0.00000E+00
 -1       315 2.61045E+01 5.12329E+01 0.00000E+00
 -1       316 1.77685E+01 5.46857E+01 0.00000E+00
 -1       317 8.99498E+00 5.67921E+01 0.00000E+00
 -1       318 5.92613E+01 9.38607E+00 0.00000E+00
 -1       319 5.70634E+01 1.85410E+01 0.00000E+00
 -1       320 5.34604E+01 2.72394E+01 0.00000E+00
 -1       321 4.85410E+01 3.52671E+01 0.00000E+00
 -1       322 4.24264E+01 4.24264E+01 0.00000E+00
 -1       323 3.52671E+01 4.85410E+01 0.00000E+00
 -1       324 2.72394E+01 5.34604E+01 0.00000E+00
 -1       325 1.85410E+01 5.70634E+01 0.00000E+00
 -1       326 9.38607E+00 5.92613E+01 0.00000E+00
 -1       327 6.17305E+01 9.77715E+00 0.00000E+00
 -1       328 5.94410E+01 1.93136E+01 0.00000E+00
 -1       329 5.56879E+01 2.83744E+01 0.00000E+00
 -1       330 5.05636E+01 3.67366E+01 0.00000E+00
 -1       331 4.41942E+01 4.41942E+01 0.00000E+00
 -1       332 3.67366E+01 5.05636E+01 0.00000E+00
 -1       333 2.83744E+01 5.56879E+01 0.00000E+00
 -1       334 1.93136E+01 5.94410E+01 0.00000E+00
 -1       335 9.77715E+00 6.17305E+01 0.00000E+00
 -1       336 6.41997E+01 1.01682E+01 0.00000E+00
 -1       337 6.18187E+01 2.00861E+01 0.00000E+00
 -1       338 5.79154E+01 2.95094E+01 0.00000E+00
 -1       339 5.25861E+01 3.82060E+01 0.00000E+00
 -1       340 4.59619E+01 4.59619E+01 0.00000E+00
 -1       341 3.82060E+01 5.25861E+01 0.00000E+00
 -1       342 2.95094E+01 5.79154E+01 0.00000E+00
 -1       343 2.00861E+01 6.18187E+01 0.00000E+00
 -1       344 1.01682E+01 6.41997E+01 0.00000E+00
 -1       345 6.66690E+01 1.05593E+01 0.00000E+00
 -1       346 6.41963E+01 2.08586E+01 0.00000E+00
 -1       347 6.01429E+01 3.06444E+01 0.00000E+00
 -1       348 5.46086E+01 3.96755E+01 0.00000E+00
 -1       349 4.77297E+01 4.77297E+01 0.00000E+00
 -1       350 3.96755E+01 5.46086E+01 0.00000E+00
 -1       351 3.06444E+01 6.01429E+01 0.00000E+00
 -1       352 2.08586E+01 6.41963E+01 0.00000E+00
 -1       353 1.05593E+01 6.66690E+01 0.00000E+00
 -1       354 6.91382E+01 1.09504E+01 0.00000E+00
 -1       355 6.65740E+01 2.16312E+01 0.00000E+00
 -1       356 6.23705E+01 3.17793E+01 0.00000E+00
 -1       357 5.66312E+01 4.11450E+01 0.00000E+00
 -1       358 4.94975E+01 4.94975E+01 0.00000E+00
 -1       359 4.11450E+01 5.66312E+01 0.00000E+00
 -1       360 3.17793E+01 6.23705E+01 0.00000E+00
 -1       361 2.16312E+01 6.65740E+01 0.00000E+00
 -1       362 1.09504E+01 6.91382E+01 0.00000E+00
 -1       363 7.16074E+01 1.13415E+01 0.00000E+00
 -1       364 6.89516E+01 2.24037E+01 0.00000E+00
 -1       365 6.45980E+01 3.29143E+01 0.00000E+00
 -1       366 5.86537E+01 4.26144E+01 0.00000E+00
 -1       367 5.12652E+01 5.12652E+01 0.00000E+00
 -1       368 4.26144E+01 5.86537E+01 0.00000E+00
 -1       369 3.29143E+01 6.45980E+01 0.00000E+00
 -1       370 2.24037E+01 6.89516E+01 0.00000E+00
 -1       371 1.13415E+01 7.16074E+01 0.00000E+00
 -1       372 7.40766E+01 1.17326E+01 0.00000E+00
 -1       373 7.13292E+01 2.31763E+01 0.00000E+00
 -1       374 6.68255E+01 3.40493E+01 0.00000E+00
 -1       375 6.06763E+01 4.40839E+01 0.00000E+00
 -1       376 5.30330E+01 5.30330E+01 0.00000E+00
 -1       377 4.40839E+01 6.06763E+01 0.00000E+00
 -1       378 3.40493E+01 6.68255E+01 0.00000E+00
 -1       379 2.31763E+01 7.13292E+01 0.00000E+00
 -1       380 1.17326E+01 7.40766E+01 0.00000E+00
 -1       381 7.65458E+01 1.21237E+01 0.00000E+00
 -1       382 7.37069E+01 2.39488E+01 0.00000E+00
 -1       383 6.90530E+01 3.51843E+01 0.00000E+00
 -1       384 6.26988E+01 4.55534E+01 0.00000E+00
 -1       385 5.48008E+01 5.48008E+01 0.00000E+00
 -1       386 4.55534E+01 6.26988E+01 0.00000E+00
 -1       387 3.51843E+01 6.90530E+01 0.00000E+00
 -1       388 2.39488E+01 7.37069E+01 0.00000E+00
 -1       389 1.21237E+01 7.65458E+01 0.00000E+00
 -1       390 7.90151E+01 1.25148E+01 0.00000E+00
 -1       391 7.60845E+01 2.47214E+01 0.00000E+00
 -1       392 7.12805E+01 3.63192E+01 0.00000E+00
 -1       393 6.47214E+01 4.70228E+01 0.00000E+00
 -1       394 5.65685E+01 5.65685E+01 0.00000E+00
 -1       395 4.70228E+01 6.47214E+01 0.00000E+00
 -1       396 3.63192E+01 7.12805E+01 0.00000E+00
 -1       397 2.47214E+01 7.60845E+01 0.00000E+00
 -1       398 1.25148E+01 7.90151E+01 0.00000E+00
 -1       399 8.14843E+01 1.29058E+01 0.00000E+00
 -1       400 7.84622E+01 2.54939E+01 0.00000E+00
 -1       401 7.35080E+01 3.74542E+01 0.00000E+00
 -1       402 6.67439E+01 4.84923E+01 0.00000E+00
 -1       403 5.83363E+01 5.83363E+01 0.00000E+00
 -1       404 4.84923E+01 6.67439E+01 0.00000E+00
 -1       405 3.74542E+01 7.35080E+01 0.00000E+00
 -1       406 2.54939E+01 7.84622E+01 0.00000E+00
 -1       407 1.29058E+01 8.14843E+01 0.00000E+00
 -1       408 8.39535E+01 1.32969E+01 0.00000E+00
 -1       409 8.08398E+01 2.62664E+01 0.00000E+00
 -1       410 7.57356E+01 3.85892E+01 0.00000E+00
 -1       411 6.87664E+01 4.99617E+01 0.00000E+00
 -1       412 6.01041E+01 6.01041E+01 0.00000E+00
 -1       413 4.99617E+01 6.87664E+01 0.00000E+00
 -1       414 3.85892E+01 7.57356E+01 0.00000E+00
 -1       415 2.62664E+01 8.08398E+01 0.00000E+00
 -1       416 1.32969E+01 8.39535E+01 0.00000E+00
 -1       417 8.64227E+01 1.36880E+01 0.00000E+00
 -1       418 8.32174E+01 2.70390E+01 0.00000E+00
 -1       419 7.79631E+01 3.97242E+01 0.00000E+00
 -1       420 7.07890E+01 5.14312E+01 0.00000E+00
 -1       421 6.18718E+01 6.18718E+01 0.00000E+00
 -1       422 5.14312E+01 7.07890E+01 0.00000E+00
 -1       423 3.97242E+01 7.79631E+01 0.00000E+00
 -1       424 2.70390E+01 8.32174E+01 0.00000E+00
 -1       425 1.36880E+01 8.64227E+01 0.00000E+00
 -1       426 8.88920E+01 1.40791E+01 0.00000E+00
 -1       427 8.55951E+01 2.78115E+01 0.00000E+00
 -1       428 8.01906E+01 4.08591E+01 0.00000E+00
 -1       429 7.28115E+01 5.29007E+01 0.00000E+00
 -1       430 6.36396E+01 6.36396E+01 0.00000E+00
 -1       431 5.29007E+01 7.28115E+01 0.00000E+00
 -1       432 4.08591E+01 8.01906E+01 0.00000E+00
 -1       433 2.78115E+01 8.55951E+01 0.00000E+00
 -1       434 1.40791E+01 8.88920E+01 0.00000E+00
 -1       435 9.13612E+01 1.44702E+01 0.00000E+00
 -1       436 8.79727E+01 2.85841E+01 0.00000E+00
 -1       437 8.24181E+01 4.19941E+01 0.00000E+00
 -1       438 7.48341E+01 5.43701E+01 0.00000E+00
 -1       439 6.54074E+01 6.54074E+01 0.00000E+00
 -1       440 5.43701E+01 7.48341E+01 0.00000E+00
 -1       441 4.19941E+01 8.24181E+01 0.00000E+00
 -1       442 2.85841E+01 8.79727E+01 0.00000E+00
 -1       443 1.44702E+01 9.13612E+01 0.00000E+00
 -1       444 9.38304E+01 1.48613E+01 0.00000E+00
 -1       445 9.03504E+01 2.93566E+01 0.00000E+00
 -1       446 8.46456E+01 4.31291E+01 0.00000E+00
 -1       447 7.68566E+01 5.58396E+01 0.00000E+00
 -1       448 6.71751E+01 6.71751E+01 0.00000E+00
 -1       449 5.58396E+01 7.68566E+01 0.00000E+00
 -1       450 4.31291E+01 8.46456E+01 0.00000E+00
 -1       451 2.93566E+01 9.03504E+01 0.00000E+00
 -1       452 1.48613E+01 9.38304E+01 0.00000E+00
 -1       453 9.62996E+01 1.52524E+01 0.00000E+00
 -1       454 9.27280E+01 3.01292E+01 0.00000E+00
 -1       455 8.68731E+01 4.42641E+01 0.00000E+00
 -1       456 7.88792E+01 5.73091E+01 0.00000E+00
 -1       457 6.89429E+01 6.89429E+01 0.00000E+00
 -1       458 5.73091E+01 7.88792E+01 0.00000E+00
 -1       459 4.42641E+01 8.68731E+01 0.00000E+00
 -1       460 3.01292E+01 9.27280E+01 0.00000E+00
 -1       461 1.52524E+01 9.62996E+01 0.00000E+00
 -1       462 2.75000E+01 0.00000E+00 9.09091E-01
 -1       463 2.75000E+01 0.00000E+00 1.81818E+00
 -1       464 2.75000E+01 0.00000E+00 2.72727E+00
 -1       465 2.75000E+01 0.00000E+00 3.63636E+00
 -1       466 2.75000E+01 0.00000E+00 4.54545E+00
 -1       467 2.75000E+01 0.00000E+00 5.45455E+00
 -1       468 2.75000E+01 0.00000E+00 6.36364E+00
 -1       469 2.75000E+01 0.00000E+00 7.27273E+00
 -1       470 2.75000E+01 0.00000E+00 8.18182E+00
 -1       471 2.75000E+01 0.00000E+00 9.09091E+00
 -1       472 3.00000E+01 0.00000E+00 9.09091E-01
 -1       473 3.00000E+01 0.00000E+00 1.81818E+00
 -1       474 3.00000E+01 0.00000E+00 2.72727E+00
 -1       475 3.00000E+01 0.00000E+00 3.63636E+00
 -1       476 3.00000E+01 0.00000E+00 4.54545E+00
 -1       477 3.00000E+01 0.00000E+00 5.45455E+00
 -1       478 3.00000E+01 0.00000E+00 6.36364E+00
 -1       479 3.00000E+01 0.00000E+00 7.27273E+00
 -1       480 3.00000E+01 0.00000E+00 8.18182E+00
 -1       481 3.00000E+01 0.00000E+00 9.09091E+00
 -1       482 3.25000E+01 0.00000E+00 9.09091E-01
 -1       483 3.25000E+01 0.00000E+00 1.81818E+00
 -1       484 3.25000E+01 0.00000E+00 2.72727E+00
 -1       485 3.25000E+01 0.00000E+00 3.63636E+00
 -1       486 3.25000E+01 0.00000E+00 4.54545E+00
 -1       487 3.25000E+01 0.00000E+00 5.45455E+00
 -1       488 3.25000E+01 0.00000E+00 6.36364E+00
 -1       489 3.25000E+01 0.00000E+00 7.27273E+00
 -1       490 3.25000E+01 0.00000E+00 8.18182E+00
 -1       491 3.25000E+01 0.00000E+00 9.09091E+00
 -1       492 3.50000E+01 0.00000E+00 9.09091E-01
 -1       493 3.50000E+01 0.00000E+00 1.81818E+00
 -1       494 3.50000E+01 0.00000E+00 2.72727E+00
 -1       495 3.50000E+01 0.00000E+00 3.63636E+00
 -1       496 3.50000E+01 0.00000E+00 4.54545E+00
 -1       497 3.50000E+01 0.00000E+00 5.45455E+00
 -1       498 3.50000E+01 0.00000E+00 6.36364E+00
 -1       499 3.50000E+01 0.00000E+00 7.27273E+00
 -1       500 3.50000E+01 0.00000E+00 8.18182E+00
 -1       501 3.50000E+01 0.00000E+00 9.09091E+00
 -1       502 3.75000E+01 0.00000E+00 9.09091E-01
 -1       503 3.75000E+01 0.00000E+00 1.81818E+00
 -1       504 3.75000E+01 0.00000E+00 2.72727E+00
 -1       505 3.75000E+01 0.00000E+00 3.63636E+00
 -1       506 3.75000E+01 0.00000E+00 4.54545E+00
 -1       507 3.75000E+01 0.00000E+00 5.45455E+00
 -1       508 3.75000E+01 0.00000E+00 6.36364E+00
 -1       509 3.75000E+01 0.00000E+00 7.27273E+00
 -1       510 3.75000E+01 0.00000E+00 8.18182E+00
 -1       511 3.75000E+01 0.00000E+00 9.09091E+00
 -1       512 4.00000E+01 0.00000E+00 9.09091E-01
 -1       513 4.00000E+01 0.00000E+00 1.81818E+00
 -1       514 4.00000E+01 0.00000E+00 2.72727E+00
 -1       515 4.00000E+01 0.00000E+00 3.63636E+00
 -1       516 4.00000E+01 0.00000E+00 4.54545E+00
 -1       517 4.00000E+01 0.00000E+00 5.45455E+00
 -1       518 4.00000E+01 0.00000E+00 6.36364E+00
 -1       519 4.00000E+01 0.00000E+00 7.27273E+00
 -1       520 4.00000E+01 0.00000E+00 8.18182E+00
 -1       521 4.00000E+01 0.00000E+00 9.09091E+00
 -1       522 4.25000E+01 0.00000E+00 9.09091E-01
 -1       523 4.25000E+01 0.00000E+00 1.81818E+00
 -1       524 4.25000E+01 0.00000E+00 2.72727E+00
 -1       525 4.25000E+01 0.00000E+00 3.63636E+00
 -1       526 4.25000E+01 0.00000E+00 4.54545E+00
 -1       527 4.25000E+01 0.00000E+00 5.45455E+00
 -1       528 4.25000E+01 0.00000E+00 6.36364E+00
 -1       529 4.25000E+01 0.00000E+00 7.27273E+00
 -1       530 4.25000E+01 0.00000E+00 8.18182E+00
 -1       531 4.25000E+01 0.00000E+00 9.09091E+00
 -1       532 4.50000E+01 0.00000E+00 9.09091E-01
 -1       533 4.50000E+01 0.00000E+00 1.81818E+00
 -1       534 4.50000E+01 0.00000E+00 2.72727E+00
 -1       535 4.50000E+01 0.00000E+00 3.63636E+00
 -1       536 4.50000E+01 0.00000E+00 4.54545E+00
 -1       537 4.50000E+01 0.00000E+00 5.45455E+00
 -1       538 4.50000E+01 0.00000E+00 6.36364E+00
 -1       539 4.50000E+01 0.00000E+00 7.27273E+00
 -1       540 4.50000E+01 0.00000E+00 8.18182E+00
 -1       541 4.50000E+01 0.00000E+00 9.09091E+00
 -1       542 4.75000E+01 0.00000E+00 9.09091E-01
 -1       543 4.75000E+01 0.00000E+00 1.81818E+00
 -1       544 4.75000E+01 0.00000E+00 2.72727E+00
 -1       545 4.75000E+01 0.00000E+00 3.63636E+00
 -1       546 4.75000E+01 0.00000E+00 4.54545E+00
 -1       547 4.75000E+01 0.00000E+00 5.45455E+00
 -1       548 4.75000E+01 0.00000E+00 6.36364E+00
 -1       549 4.75000E+01 0.00000E+00 7.27273E+00
 -1       550 4.75000E+01 0.00000E+00 8.18182E+00
 -1       551 4.75000E+01 0.00000E+00 9.09091E+00
 -1       552 5.00000E+01 0.00000E+00 9.09091E-01
 -1       553 5.00000E+01 0.00000E+00 1.81818E+00
 -1       554 5.00000E+01 0.00000E+00 2.72727E+00
 -1       555 5.00000E+01 0.00000E+00 3.63636E+00
 -1       556 5.00000E+01 0.00000E+00 4.54545E+00
 -1       557 5.00000E+01 0.00000E+00 5.45455E+00
 -1       558 5.00000E+01 0.00000E+00 6.36364E+00
 -1       559 5.00000E+01 0.00000E+00 7.27273E+00
 -1       560 5.00000E+01 0.00000E+00 8.18182E+00
 -1       561 5.00000E+01 0.00000E+00 9.09091E+00
 -1       562 5.25000E+01 0.00000E+00 9.09091E-01
 -1       563 5.25000E+01 0.00000E+00 1.81818E+00
 -1       564 5.25000E+01 0.00000E+00 2.72727E+00
 -1       565 5.25000E+01 0.00000E+00 3.63636E+00
 -1       566 5.25000E+01 0.00000E+00 4.54545E+00
 -1       567 5.25000E+01 0.00000E+00 5.45455E+00
 -1       568 5.25000E+01 0.00000E+00 6.36364E+00
 -1       569 5.25000E+01 0.00000E+00 7.27273E+00
 -1       570 5.25000E+01 0.00000E+00 8.18182E+00
 -1       571 5.25000E+01 0.00000E+00 9.09091E+00
 -1       572 5.50000E+01 0.00000E+00 9.09091E-01
 -1       573 5.50000E+01 0.00000E+00 1.81818E+00
 -1       574 5.50000E+01 0.00000E+00 2.72727E+00
 -1       575 5.50000E+01 0.00000E+00 3.63636E+00
 -1       576 5.50000E+01 0.00000E+00 4.54545E+00
 -1       577 5.50000E+01 0.00000E+00 5.45455E+00
 -1       578 5.50000E+01 0.00000E+00 6.36364E+00
 -1       579 5.50000E+01 0.00000E+00 7.27273E+00
 -1       580 5.50000E+01 0.00000E+00 8.18182E+00
 -1       581 5.50000E+01 0.00000E+00 9.09091E+00
 -1       582 5.75000E+01 0.00000E+00 9.09091E-01