<?xml version="1.0"?>
<VTKFile type="UnstructuredGrid" version="0.1" byte_order="LittleEndian">
	<UnstructuredGrid>
		<Piece NumberOfPoints="4092" NumberOfCells="3300">
			<Points>
				<DataArray type="Float64" NumberOfComponents="3" format="ascii">
					 2.50000000E+01	 0.00000000E+00	 0.00000000E+00
					 1.00000000E+02	 0.00000000E+00	 0.00000000E+00
					 6.12323000E-15	 1.00000000E+02	 0.00000000E+00
					 1.53081000E-15	 2.50000000E+01	 0.00000000E+00
					 2.50000000E+01	 0.00000000E+00	 1.00000000E+01
					 1.00000000E+02	 0.00000000E+00	 1.00000000E+01
					 6.12323000E-15	 1.00000000E+02	 1.00000000E+01
					 1.53081000E-15	 2.50000000E+01	 1.00000000E+01
					 2.75000000E+01	 0.00000000E+00	 0.00000000E+00
					 3.00000000E+01	 0.00000000E+00	 0.00000000E+00
					 3.25000000E+01	 0.00000000E+00	 0.00000000E+00
					 3.50000000E+01	 0.00000000E+00	 0.00000000E+00
					 3.75000000E+01	 0.00000000E+00	 0.00000000E+00
					 4.00000000E+01	 0.00000000E+00	 0.00000000E+00
					 4.25000000E+01	 0.00000000E+00	 0.00000000E+00
					 4.50000000E+01	 0.00000000E+00	 0.00000000E+00
					 4.75000000E+01	 0.00000000E+00	 0.00000000E+00
					 5.00000000E+01	 0.00000000E+00	 0.00000000E+00
					 5.25000000E+01	 0.00000000E+00	 0.00000000E+00
					 5.50000000E+01	 0.00000000E+00	 0.00000000E+00
					 5.75000000E+01	 0.00000000E+00	 0.00000000E+00
					 6.00000000E+01	 0.00000000E+00	 0.00000000E+00
					 6.25000000E+01	 0.00000000E+00	 0.00000000E+00
					 6.50000000E+01	 0.00000000E+00	 0.00000000E+00
					 6.75000000E+01	 0.00000000E+00	 0.00000000E+00
					 7.00000000E+01	 0.00000000E+00	 0.00000000E+00
					 7.25000000E+01	 0.00000000E+00	 0.00000000E+00
					 7.50000000E+01	 0.00000000E+00	 0.00000000E+00
					 7.75000000E+01	 0.00000000E+00	 0.00000000E+00
					 8.00000000E+01	 0.00000000E+00	 0.00000000E+00
					 8.25000000E+01	 0.00000000E+00	 0.00000000E+00
					 8.50000000E+01	 0.00000000E+00	 0.00000000E+00
					 8.75000000E+01	 0.00000000E+00	 0.00000000E+00
					 9.00000000E+01	 0.00000000E+00	 0.00000000E+00
					 9.25000000E+01	 0.00000000E+00	 0.00000000E+00
					 9.50000000E+01	 0.00000000E+00	 0.00000000E+00
					 9.75000000E+01	 0.00000000E+00	 0.00000000E+00
					 9.87688000E+01	 1.56434000E+01	 0.00000000E+00
					 9.51057000E+01	 3.09017000E+01	 0.00000000E+00
					 8.91007000E+01	 4.53991000E+01	 0.00000000E+00
					 8.09017000E+01	 5.87785000E+01	 0.00000000E+00
					 7.07107000E+01	 7.07107000E+01	 0.00000000E+00
					 5.87785000E+01	 8.09017000E+01	 0.00000000E+00
					 4.53991000E+01	 8.91007000E+01	 0.00000000E+00
					 3.09017000E+01	 9.51057000E+01	 0.00000000E+00
					 1.56434000E+01	 9.87688000E+01	 0.00000000E+00
					 5.97015000E-15	 9.75000000E+01	 0.00000000E+00
					 5.81707000E-15	 9.50000000E+01	 0.00000000E+00
					 5.66399000E-15	 9.25000000E+01	 0.00000000E+00
					 5.51091000E-15	 9.00000000E+01	 0.00000000E+00
					 5.35783000E-15	 8.75000000E+01	 0.00000000E+00
					 5.20475000E-15	 8.50000000E+01	 0.00000000E+00
					 5.05167000E-15	 8.25000000E+01	 0.00000000E+00
					 4.89859000E-15	 8.00000000E+01	 0.00000000E+00
					 4.74551000E-15	 7.75000000E+01	 0.00000000E+00
					 4.59243000E-15	 7.50000000E+01	 0.00000000E+00
					 4.43934000E-15	 7.25000000E+01	 0.00000000E+00
					 4.28626000E-15	 7.00000000E+01	 0.00000000E+00
					 4.13318000E-15	 6.75000000E+01	 0.00000000E+00
					 3.98010000E-15	 6.50000000E+01	 0.00000000E+00
					 3.82702000E-15	 6.25000000E+01	 0.00000000E+00
					 3.67394000E-15	 6.00000000E+01	 0.00000000E+00
					 3.52086000E-15	 5.75000000E+01	 0.00000000E+00
					 3.36778000E-15	 5.50000000E+01	 0.00000000E+00
					 3.21470000E-15	 5.25000000E+01	 0.00000000E+00
					 3.06162000E-15	 5.00000000E+01	 0.00000000E+00
					 2.90854000E-15	 4.75000000E+01	 0.00000000E+00
					 2.75546000E-15	 4.50000000E+01	 0.00000000E+00
					 2.60237000E-15	 4.25000000E+01	 0.00000000E+00
					 2.44929000E-15	 4.00000000E+01	 0.00000000E+00
					 2.29621000E-15	 3.75000000E+01	 0.00000000E+00
					 2.14313000E-15	 3.50000000E+01	 0.00000000E+00
					 1.99005000E-15	 3.25000000E+01	 0.00000000E+00
					 1.83697000E-15	 3.00000000E+01	 0.00000000E+00
					 1.68389000E-15	 2.75000000E+01	 0.00000000E+00
					 3.91086000E+00	 2.46922000E+01	 0.00000000E+00
					 7.72542000E+00	 2.37764000E+01	 0.00000000E+00
					 1.13498000E+01	 2.22752000E+01	 0.00000000E+00
					 1.46946000E+01	 2.02254000E+01	 0.00000000E+00
					 1.76777000E+01	 1.76777000E+01	 0.00000000E+00
					 2.02254000E+01	 1.46946000E+01	 0.00000000E+00
					 2.22752000E+01	 1.13498000E+01	 0.00000000E+00
					 2.37764000E+01	 7.72542000E+00	 0.00000000E+00
					 2.46922000E+01	 3.91086000E+00	 0.00000000E+00
					 2.75000000E+01	 0.00000000E+00	 1.00000000E+01
					 3.00000000E+01	 0.00000000E+00	 1.00000000E+01
					 3.25000000E+01	 0.00000000E+00	 1.00000000E+01
					 3.50000000E+01	 0.00000000E+00	 1.00000000E+01
					 3.75000000E+01	 0.00000000E+00	 1.00000000E+01
					 4.00000000E+01	 0.00000000E+00	 1.00000000E+01
					 4.25000000E+01	 0.00000000E+00	 1.00000000E+01
					 4.50000000E+01	 0.00000000E+00	 1.00000000E+01
					 4.75000000E+01	 0.00000000E+00	 1.00000000E+01
					 5.00000000E+01	 0.00000000E+00	 1.00000000E+01
					 5.25000000E+01	 0.00000000E+00	 1.00000000E+01
					 5.50000000E+01	 0.00000000E+00	 1.00000000E+01
					 5.75000000E+01	 0.00000000E+00	 1.00000000E+01
					 6.00000000E+01	 0.00000000E+00	 1.00000000E+01
					 6.25000000E+01	 0.00000000E+00	 1.00000000E+01
					 6.50000000E+01	 0.00000000E+00	 1.00000000E+01
					 6.75000000E+01	 0.00000000E+00	 1.00000000E+01
					 7.00000000E+01	 0.00000000E+00	 1.00000000E+01
					 7.25000000E+01	 0.00000000E+00	 1.00000000E+01
					 7.50000000E+01	 0.00000000E+00	 1.00000000E+01
					 7.75000000E+01	 0.00000000E+00	 1.00000000E+01
					 8.00000000E+01	 0.00000000E+00	 1.00000000E+01
					 8.25000000E+01	 0.00000000E+00	 1.00000000E+01
					 8.50000000E+01	 0.00000000E+00	 1.00000000E+01
					 8.75000000E+01	 0.00000000E+00	 1.00000000E+01
					 9.00000000E+01	 0.00000000E+00	 1.00000000E+01
					 9.25000000E+01	 0.00000000E+00	 1.00000000E+01
					 9.50000000E+01	 0.00000000E+00	 1.00000000E+01
					 9.75000000E+01	 0.00000000E+00	 1.00000000E+01
					 9.87688000E+01	 1.56434000E+01	 1.00000000E+01
					 9.51057000E+01	 3.09017000E+01	 1.00000000E+01
					 8.91007000E+01	 4.53991000E+01	 1.00000000E+01
					 8.09017000E+01	 5.87785000E+01	 1.00000000E+01
					 7.07107000E+01	 7.07107000E+01	 1.00000000E+01
					 5.87785000E+01	 8.09017000E+01	 1.00000000E+01
					 4.53991000E+01	 8.91007000E+01	 1.00000000E+01
					 3.09017000E+01	 9.51057000E+01	 1.00000000E+01
					 1.56434000E+01	 9.87688000E+01	 1.00000000E+01
					 5.97015000E-15	 9.75000000E+01	 1.00000000E+01
					 5.81707000E-15	 9.50000000E+01	 1.00000000E+01
					 5.66399000E-15	 9.25000000E+01	 1.00000000E+01
					 5.51091000E-15	 9.00000000E+01	 1.00000000E+01
					 5.35783000E-15	 8.75000000E+01	 1.00000000E+01
					 5.20475000E-15	 8.50000000E+01	 1.00000000E+01
					 5.05167000E-15	 8.25000000E+01	 1.00000000E+01
					 4.89859000E-15	 8.00000000E+01	 1.00000000E+01
					 4.74551000E-15	 7.75000000E+01	 1.00000000E+01
					 4.59243000E-15	 7.50000000E+01	 1.00000000E+01
					 4.43934000E-15	 7.25000000E+01	 1.00000000E+01
					 4.28626000E-15	 7.00000000E+01	 1.00000000E+01
					 4.13318000E-15	 6.75000000E+01	 1.00000000E+01
					 3.98010000E-15	 6.50000000E+01	 1.00000000E+01
					 3.82702000E-15	 6.25000000E+01	 1.00000000E+01
					 3.67394000E-15	 6.00000000E+01	 1.00000000E+01
					 3.52086000E-15	 5.75000000E+01	 1.00000000E+01
					 3.36778000E-15	 5.50000000E+01	 1.00000000E+01
					 3.21470000E-15	 5.25000000E+01	 1.00000000E+01
					 3.06162000E-15	 5.00000000E+01	 1.00000000E+01
					 2.90854000E-15	 4.75000000E+01	 1.00000000E+01
					 2.75546000E-15	 4.50000000E+01	 1.00000000E+01
					 2.60237000E-15	 4.25000000E+01	 1.00000000E+01
					 2.44929000E-15	 4.00000000E+01	 1.00000000E+01
					 2.29621000E-15	 3.75000000E+01	 1.00000000E+01
					 2.14313000E-15	 3.50000000E+01	 1.00000000E+01
					 1.99005000E-15	 3.25000000E+01	 1.00000000E+01
					 1.83697000E-15	 3.00000000E+01	 1.00000000E+01
					 1.68389000E-15	 2.75000000E+01	 1.00000000E+01
					 3.91086000E+00	 2.46922000E+01	 1.00000000E+01
					 7.72542000E+00	 2.37764000E+01	 1.00000000E+01
					 1.13498000E+01	 2.22752000E+01	 1.00000000E+01
					 1.46946000E+01	 2.02254000E+01	 1.00000000E+01
					 1.76777000E+01	 1.76777000E+01	 1.00000000E+01
					 2.02254000E+01	 1.46946000E+01	 1.00000000E+01
					 2.22752000E+01	 1.13498000E+01	 1.00000000E+01
					 2.37764000E+01	 7.72542000E+00	 1.00000000E+01
					 2.46922000E+01	 3.91086000E+00	 1.00000000E+01
					 2.50000000E+01	 0.00000000E+00	 9.09091000E-01
					 2.50000000E+01	 0.00000000E+00	 1.81818000E+00
					 2.50000000E+01	 0.00000000E+00	 2.72727000E+00
					 2.50000000E+01	 0.00000000E+00	 3.63636000E+00
					 2.50000000E+01	 0.00000000E+00	 4.54545000E+00
					 2.50000000E+01	 0.00000000E+00	 5.45455000E+00
					 2.50000000E+01	 0.00000000E+00	 6.36364000E+00
					 2.50000000E+01	 0.00000000E+00	 7.27273000E+00
					 2.50000000E+01	 0.00000000E+00	 8.18182000E+00
					 2.50000000E+01	 0.00000000E+00	 9.09091000E+00
					 1.00000000E+02	 0.00000000E+00	 9.09091000E-01
					 1.00000000E+02	 0.00000000E+00	 1.81818000E+00
					 1.00000000E+02	 0.00000000E+00	 2.72727000E+00
					 1.00000000E+02	 0.00000000E+00	 3.63636000E+00
					 1.00000000E+02	 0.00000000E+00	 4.54545000E+00
					 1.00000000E+02	 0.00000000E+00	 5.45455000E+00
					 1.00000000E+02	 0.00000000E+00	 6.36364000E+00
					 1.00000000E+02	 0.00000000E+00	 7.27273000E+00
					 1.00000000E+02	 0.00000000E+00	 8.18182000E+00
					 1.00000000E+02	 0.00000000E+00	 9.09091000E+00
					 6.12323000E-15	 1.00000000E+02	 9.09091000E-01
					 6.12323000E-15	 1.00000000E+02	 1.81818000E+00
					 6.12323000E-15	 1.00000000E+02	 2.72727000E+00
[...]
			<PointData>
				<DataArray type="Float32" Name="U" NumberOfComponents="3" ComponentName0="D1" ComponentName1="D2" ComponentName2="D3" format="ascii">
					 1.69803000E-04	 0.00000000E+00	 1.26364000E-05
					 6.33404000E-05	 0.00000000E+00	 1.20991000E-05
					 0.00000000E+00	 6.33404000E-05	 1.20991000E-05
					 0.00000000E+00	 1.69803000E-04	 1.26364000E-05
					 1.69803000E-04	 0.00000000E+00	 9.67794000E-06
					 6.33404000E-05	 0.00000000E+00	 1.02152000E-05
					 0.00000000E+00	 6.33404000E-05	 1.02152000E-05
					 0.00000000E+00	 1.69803000E-04	 9.67794000E-06
					 1.55571000E-04	 0.00000000E+00	 1.21083000E-05
					 1.43759000E-04	 0.00000000E+00	 1.20782000E-05
					 1.33799000E-04	 0.00000000E+00	 1.20806000E-05
					 1.25320000E-04	 0.00000000E+00	 1.20917000E-05
					 1.18040000E-04	 0.00000000E+00	 1.20984000E-05
					 1.11738000E-04	 0.00000000E+00	 1.21019000E-05
					 1.06242000E-04	 0.00000000E+00	 1.21036000E-05
					 1.01419000E-04	 0.00000000E+00	 1.21046000E-05
					 9.71624000E-05	 0.00000000E+00	 1.21054000E-05
					 9.33868000E-05	 0.00000000E+00	 1.21060000E-05
					 9.00237000E-05	 0.00000000E+00	 1.21064000E-05
					 8.70167000E-05	 0.00000000E+00	 1.21068000E-05
					 8.43194000E-05	 0.00000000E+00	 1.21071000E-05
					 8.18932000E-05	 0.00000000E+00	 1.21074000E-05
					 7.97054000E-05	 0.00000000E+00	 1.21076000E-05
					 7.77287000E-05	 0.00000000E+00	 1.21077000E-05
					 7.59394000E-05	 0.00000000E+00	 1.21078000E-05
					 7.43176000E-05	 0.00000000E+00	 1.21080000E-05
					 7.28460000E-05	 0.00000000E+00	 1.21080000E-05
					 7.15094000E-05	 0.00000000E+00	 1.21081000E-05
					 7.02949000E-05	 0.00000000E+00	 1.21082000E-05
					 6.91909000E-05	 0.00000000E+00	 1.21082000E-05
					 6.81875000E-05	 0.00000000E+00	 1.21083000E-05
					 6.72758000E-05	 0.00000000E+00	 1.21083000E-05
					 6.64479000E-05	 0.00000000E+00	 1.21084000E-05
					 6.56968000E-05	 0.00000000E+00	 1.21085000E-05
					 6.50162000E-05	 0.00000000E+00	 1.21087000E-05
					 6.44001000E-05	 0.00000000E+00	 1.21087000E-05
					 6.38430000E-05	 0.00000000E+00	 1.21080000E-05
					 6.25606000E-05	 9.90863000E-06	 1.20991000E-05
					 6.02403000E-05	 1.95733000E-05	 1.20991000E-05
					 5.64367000E-05	 2.87560000E-05	 1.20991000E-05
					 5.12435000E-05	 3.72306000E-05	 1.20991000E-05
					 4.47884000E-05	 4.47885000E-05	 1.20991000E-05
					 3.72306000E-05	 5.12435000E-05	 1.20991000E-05
					 2.87560000E-05	 5.64367000E-05	 1.20991000E-05
					 1.95733000E-05	 6.02403000E-05	 1.20991000E-05
					 9.90863000E-06	 6.25606000E-05	 1.20991000E-05
					 0.00000000E+00	 6.38430000E-05	 1.21080000E-05
					 0.00000000E+00	 6.44001000E-05	 1.21087000E-05
					 0.00000000E+00	 6.50162000E-05	 1.21087000E-05
					 0.00000000E+00	 6.56968000E-05	 1.21085000E-05
					 0.00000000E+00	 6.64479000E-05	 1.21084000E-05
					 0.00000000E+00	 6.72758000E-05	 1.21083000E-05
					 0.00000000E+00	 6.81875000E-05	 1.21083000E-05
					 0.00000000E+00	 6.91909000E-05	 1.21082000E-05
					 0.00000000E+00	 7.02949000E-05	 1.21082000E-05
					 0.00000000E+00	 7.15094000E-05	 1.21081000E-05
					 0.00000000E+00	 7.28460000E-05	 1.21080000E-05
					 0.00000000E+00	 7.43176000E-05	 1.21080000E-05
					 0.00000000E+00	 7.59394000E-05	 1.21078000E-05
					 0.00000000E+00	 7.77287000E-05	 1.21077000E-05
					 0.00000000E+00	 7.97054000E-05	 1.21076000E-05
					 0.00000000E+00	 8.18932000E-05	 1.21074000E-05
					 0.00000000E+00	 8.43194000E-05	 1.21071000E-05
					 0.00000000E+00	 8.70167000E-05	 1.21068000E-05
					 0.00000000E+00	 9.00237000E-05	 1.21064000E-05
					 0.00000000E+00	 9.33868000E-05	 1.21060000E-05
					 0.00000000E+00	 9.71624000E-05	 1.21054000E-05
					 0.00000000E+00	 1.01419000E-04	 1.21046000E-05
					 0.00000000E+00	 1.06242000E-04	 1.21036000E-05
					 0.00000000E+00	 1.11738000E-04	 1.21019000E-05
					 0.00000000E+00	 1.18040000E-04	 1.20984000E-05
					 0.00000000E+00	 1.25320000E-04	 1.20917000E-05
					 0.00000000E+00	 1.33799000E-04	 1.20806000E-05
					 0.00000000E+00	 1.43759000E-04	 1.20782000E-05
					 0.00000000E+00	 1.55571000E-04	 1.21083000E-05
					 2.65631000E-05	 1.67713000E-04	 1.26364000E-05
					 5.24720000E-05	 1.61492000E-04	 1.26364000E-05
					 7.70890000E-05	 1.51296000E-04	 1.26364000E-05
					 9.98077000E-05	 1.37374000E-04	 1.26364000E-05
					 1.20069000E-04	 1.20069000E-04	 1.26364000E-05
					 1.37374000E-04	 9.98077000E-05	 1.26364000E-05
					 1.51296000E-04	 7.70890000E-05	 1.26364000E-05
					 1.61492000E-04	 5.24720000E-05	 1.26364000E-05
					 1.67713000E-04	 2.65631000E-05	 1.26364000E-05
					 1.55571000E-04	 0.00000000E+00	 1.02060000E-05
					 1.43759000E-04	 0.00000000E+00	 1.02361000E-05
					 1.33799000E-04	 0.00000000E+00	 1.02337000E-05
					 1.25320000E-04	 0.00000000E+00	 1.02226000E-05
					 1.18040000E-04	 0.00000000E+00	 1.02159000E-05
					 1.11738000E-04	 0.00000000E+00	 1.02125000E-05
					 1.06242000E-04	 0.00000000E+00	 1.02107000E-05
					 1.01419000E-04	 0.00000000E+00	 1.02097000E-05
					 9.71624000E-05	 0.00000000E+00	 1.02089000E-05
					 9.33868000E-05	 0.00000000E+00	 1.02083000E-05
					 9.00237000E-05	 0.00000000E+00	 1.02079000E-05
					 8.70167000E-05	 0.00000000E+00	 1.02075000E-05
					 8.43194000E-05	 0.00000000E+00	 1.02072000E-05
					 8.18932000E-05	 0.00000000E+00	 1.02070000E-05
					 7.97054000E-05	 0.00000000E+00	 1.02068000E-05
					 7.77287000E-05	 0.00000000E+00	 1.02066000E-05
					 7.59394000E-05	 0.00000000E+00	 1.02065000E-05
					 7.43176000E-05	 0.00000000E+00	 1.02064000E-05
					 7.28460000E-05	 0.00000000E+00	 1.02063000E-05
					 7.15094000E-05	 0.00000000E+00	 1.02062000E-05
					 7.02949000E-05	 0.00000000E+00	 1.02061000E-05
					 6.91909000E-05	 0.00000000E+00	 1.02061000E-05
					 6.81875000E-05	 0.00000000E+00	 1.02060000E-05
					 6.72758000E-05	 0.00000000E+00	 1.02060000E-05
					 6.64479000E-05	 0.00000000E+00	 1.02059000E-05
					 6.56968000E-05	 0.00000000E+00	 1.02058000E-05
					 6.50162000E-05	 0.00000000E+00	 1.02056000E-05
					 6.44001000E-05	 0.00000000E+00	 1.02057000E-05
					 6.38430000E-05	 0.00000000E+00	 1.02063000E-05
					 6.25606000E-05	 9.90863000E-06	 1.02152000E-05
					 6.02403000E-05	 1.95733000E-05	 1.02152000E-05
					 5.64367000E-05	 2.87560000E-05	 1.02152000E-05
					 5.12435000E-05	 3.72306000E-05	 1.02152000E-05
					 4.47884000E-05	 4.47885000E-05	 1.02152000E-05
					 3.72306000E-05	 5.12435000E-05	 1.02152000E-05
					 2.87560000E-05	 5.64367000E-05	 1.02152000E-05
					 1.95733000E-05	 6.02403000E-05	 1.02152000E-05
					 9.90863000E-06	 6.25606000E-05	 1.02152000E-05
					 0.00000000E+00	 6.38430000E-05	 1.02063000E-05
					 0.00000000E+00	 6.44001000E-05	 1.02057000E-05
					 0.00000000E+00	 6.50162000E-05	 1.02056000E-05
					 0.00000000E+00	 6.56968000E-05	 1.02058000E-05
					 0.00000000E+00	 6.64479000E-05	 1.02059000E-05
					 0.00000000E+00	 6.72758000E-05	 1.02060000E-05
					 0.00000000E+00	 6.81875000E-05	 1.02060000E-05
					 0.00000000E+00	 6.91909000E-05	 1.02061000E-05
					 0.00000000E+00	 7.02949000E-05	 1.02061000E-05
					 0.00000000E+00	 7.15094000E-05	 1.02062000E-05
					 0.00000000E+00	 7.28460000E-05	 1.02063000E-05
					 0.00000000E+00	 7.43176000E-05	 1.02064000E-05
					 0.00000000E+00	 7.59394000E-05	 1.02065000E-05
					 0.00000000E+00	 7.77287000E-05	 1.02066000E-05
					 0.00000000E+00	 7.97054000E-05	 1.02068000E-05
					 0.00000000E+00	 8.18932000E-05	 1.02070000E-05
					 0.00000000E+00	 8.43194000E-05	 1.02072000E-05
					 0.00000000E+00	 8.70167000E-05	 1.02075000E-05
					 0.00000000E+00	 9.00237000E-05	 1.02079000E-05
					 0.00000000E+00	 9.33868000E-05	 1.02083000E-05
					 0.00000000E+00	 9.71624000E-05	 1.02089000E-05
					 0.00000000E+00	 1.01419000E-04	 1.02097000E-05
					 0.00000000E+00	 1.06242000E-04	 1.02107000E-05
					 0.00000000E+00	 1.11738000E-04	 1.02125000E-05
					 0.00000000E+00	 1.18040000E-04	 1.02159000E-05
					 0.00000000E+00	 1.25320000E-04	 1.02226000E-05
					 0.00000000E+00	 1.33799000E-04	 1.02337000E-05
					 0.00000000E+00	 1.43759000E-04	 1.02361000E-05
					 0.00000000E+00	 1.55571000E-04	 1.02060000E-05
					 2.65631000E-05	 1.67713000E-04	 9.67794000E-06
					 5.24720000E-05	 1.61492000E-04	 9.67794000E-06
					 7.70890000E-05	 1.51296000E-04	 9.67794000E-06
					 9.98077000E-05	 1.37374000E-04	 9.67794000E-06
					 1.20069000E-04	 1.20069000E-04	 9.67794000E-06
					 1.37374000E-04	 9.98077000E-05	 9.67794000E-06
					 1.51296000E-04	 7.70890000E-05	 9.67794000E-06
					 1.61492000E-04	 5.24720000E-05	 9.67794000E-06
					 1.67713000E-04	 2.65631000E-05	 9.67794000E-06
					 1.69970000E-04	 0.00000000E+00	 1.23218000E-05
					 1.70050000E-04	 0.00000000E+00	 1.20355000E-05
					 1.70091000E-04	 0.00000000E+00	 1.17704000E-05
					 1.70112000E-04	 0.00000000E+00	 1.15197000E-05
					 1.70121000E-04	 0.00000000E+00	 1.12771000E-05
					 1.70121000E-04	 0.00000000E+00	 1.10372000E-05
					 1.70112000E-04	 0.00000000E+00	 1.07946000E-05
					 1.70091000E-04	 0.00000000E+00	 1.05439000E-05
					 1.70050000E-04	 0.00000000E+00	 1.02788000E-05
					 1.69970000E-04	 0.00000000E+00	 9.99251000E-06
					 6.33432000E-05	 0.00000000E+00	 1.19286000E-05
					 6.33446000E-05	 0.00000000E+00	 1.17576000E-05
					 6.33453000E-05	 0.00000000E+00	 1.15863000E-05
					 6.33457000E-05	 0.00000000E+00	 1.14147000E-05
					 6.33458000E-05	 0.00000000E+00	 1.12430000E-05
					 6.33458000E-05	 0.00000000E+00	 1.10713000E-05
					 6.33457000E-05	 0.00000000E+00	 1.08996000E-05
					 6.33453000E-05	 0.00000000E+00	 1.07280000E-05
					 6.33446000E-05	 0.00000000E+00	 1.05567000E-05
					 6.33432000E-05	 0.00000000E+00	 1.03857000E-05
					 0.00000000E+00	 6.33432000E-05	 1.19286000E-05
					 0.00000000E+00	 6.33446000E-05	 1.17576000E-05
					 0.00000000E+00	 6.33453000E-05	 1.15863000E-05
					 0.00000000E+00	 6.33457000E-05	 1.14147000E-05
					 0.00000000E+00	 6.33458000E-05	 1.12430000E-05
					 0.00000000E+00	 6.33458000E-05	 1.10713000E-05
					 0.00000000E+00	 6.33457000E-05	 1.08996000E-05
					 0.00000000E+00	 6.33453000E-05	 1.07280000E-05
					 0.00000000E+00	 6.33446000E-05	 1.05567000E-05
					 0.00000000E+00	 6.33432000E-05	 1.03857000E-05
					 0.00000000E+00	 1.69970000E-04	 1.23218000E-05
					 0.00000000E+00	 1.70050000E-04	 1.20355000E-05
					 0.00000000E+00	 1.70091000E-04	 1.17704000E-05
					 0.00000000E+00	 1.70112000E-04	 1.15197000E-05
					 0.00000000E+00	 1.70121000E-04	 1.12771000E-05
					 0.00000000E+00	 1.70121000E-04	 1.10372000E-05
					 0.00000000E+00	 1.70112000E-04	 1.07946000E-05
					 0.00000000E+00	 1.70091000E-04	 1.05439000E-05
					 0.00000000E+00	 1.70050000E-04	 1.02788000E-05
					 0.00000000E+00	 1.69970000E-04	 9.99251000E-06
					 1.53655000E-04	 2.43366000E-05	 1.21083000E-05
					 1.47956000E-04	 4.80739000E-05	 1.21083000E-05
					 1.38614000E-04	 7.06275000E-05	 1.21083000E-05
					 1.25859000E-04	 9.14421000E-05	 1.21083000E-05
					 1.10005000E-04	 1.10005000E-04	 1.21083000E-05
					 9.14421000E-05	 1.25859000E-04	 1.21083000E-05
					 7.06275000E-05	 1.38614000E-04	 1.21083000E-05
					 4.80739000E-05	 1.47956000E-04	 1.21083000E-05
					 2.43366000E-05	 1.53655000E-04	 1.21083000E-05
					 1.41989000E-04	 2.24889000E-05	 1.20782000E-05
					 1.36723000E-04	 4.44241000E-05	 1.20782000E-05
					 1.28091000E-04	 6.52654000E-05	 1.20782000E-05
					 1.16304000E-04	 8.44996000E-05	 1.20782000E-05
					 1.01653000E-04	 1.01653000E-04	 1.20782000E-05
					 8.44996000E-05	 1.16304000E-04	 1.20782000E-05
					 6.52654000E-05	 1.28091000E-04	 1.20782000E-05
					 4.44241000E-05	 1.36723000E-04	 1.20782000E-05
					 2.24889000E-05	 1.41989000E-04	 1.20782000E-05
					 1.32151000E-04	 2.09307000E-05	 1.20806000E-05
					 1.27250000E-04	 4.13460000E-05	 1.20806000E-05
					 1.19215000E-04	 6.07433000E-05	 1.20806000E-05
					 1.08245000E-04	 7.86448000E-05	 1.20806000E-05
					 9.46098000E-05	 9.46098000E-05	 1.20806000E-05
					 7.86448000E-05	 1.08245000E-04	 1.20806000E-05
					 6.07433000E-05	 1.19215000E-04	 1.20806000E-05
					 4.13460000E-05	 1.27250000E-04	 1.20806000E-05
					 2.09307000E-05	 1.32151000E-04	 1.20806000E-05
					 1.23777000E-04	 1.96044000E-05	 1.20917000E-05
					 1.19187000E-04	 3.87261000E-05	 1.20917000E-05
					 1.11661000E-04	 5.68942000E-05	 1.20917000E-05
					 1.01386000E-04	 7.36614000E-05	 1.20917000E-05
					 8.86148000E-05	 8.86148000E-05	 1.20917000E-05
					 7.36614000E-05	 1.01386000E-04	 1.20917000E-05
					 5.68942000E-05	 1.11661000E-04	 1.20917000E-05
					 3.87261000E-05	 1.19187000E-04	 1.20917000E-05
					 1.96044000E-05	 1.23777000E-04	 1.20917000E-05
					 1.16587000E-04	 1.84655000E-05	 1.20984000E-05
					 1.12263000E-04	 3.64764000E-05	 1.20984000E-05
					 1.05174000E-04	 5.35890000E-05	 1.20984000E-05
					 9.54963000E-05	 6.93821000E-05	 1.20984000E-05
					 8.34669000E-05	 8.34669000E-05	 1.20984000E-05
					 6.93821000E-05	 9.54963000E-05	 1.20984000E-05
					 5.35890000E-05	 1.05174000E-04	 1.20984000E-05
					 3.64764000E-05	 1.12263000E-04	 1.20984000E-05
					 1.84655000E-05	 1.16587000E-04	 1.20984000E-05
					 1.10362000E-04	 1.74796000E-05	 1.21019000E-05
					 1.06269000E-04	 3.45288000E-05	 1.21019000E-05
					 9.95590000E-05	 5.07278000E-05	 1.21019000E-05
					 9.03976000E-05	 6.56777000E-05	 1.21019000E-05
					 7.90104000E-05	 7.90104000E-05	 1.21019000E-05
					 6.56777000E-05	 9.03976000E-05	 1.21019000E-05
					 5.07278000E-05	 9.95590000E-05	 1.21019000E-05
					 3.45288000E-05	 1.06269000E-04	 1.21019000E-05
					 1.74796000E-05	 1.10362000E-04	 1.21019000E-05
					 1.04934000E-04	 1.66199000E-05	 1.21036000E-05
					 1.01042000E-04	 3.28306000E-05	 1.21036000E-05
					 9.46624000E-05	 4.82329000E-05	 1.21036000E-05
					 8.59517000E-05	 6.24476000E-05	 1.21036000E-05
					 7.51245000E-05	 7.51245000E-05	 1.21036000E-05
					 6.24476000E-05	 8.59517000E-05	 1.21036000E-05
					 4.82329000E-05	 9.46624000E-05	 1.21036000E-05
					 3.28306000E-05	 1.01042000E-04	 1.21036000E-05
					 1.66199000E-05	 1.04934000E-04	 1.21036000E-05
					 1.00171000E-04	 1.58655000E-05	 1.21046000E-05
					 9.64554000E-05	 3.13402000E-05	 1.21046000E-05
					 9.03651000E-05	 4.60433000E-05	 1.21046000E-05
					 8.20498000E-05	 5.96127000E-05	 1.21046000E-05
					 7.17142000E-05	 7.17142000E-05	 1.21046000E-05
					 5.96127000E-05	 8.20498000E-05	 1.21046000E-05
					 4.60433000E-05	 9.03651000E-05	 1.21046000E-05
					 3.13402000E-05	 9.64554000E-05	 1.21046000E-05
					 1.58655000E-05	 1.00171000E-04	 1.21046000E-05
					 9.59662000E-05	 1.51995000E-05	 1.21054000E-05
					 9.24069000E-05	 3.00248000E-05	 1.21054000E-05
					 8.65723000E-05	 4.41108000E-05	 1.21054000E-05
					 7.86060000E-05	 5.71106000E-05	 1.21054000E-05
					 6.87042000E-05	 6.87042000E-05	 1.21054000E-05
					 5.71106000E-05	 7.86060000E-05	 1.21054000E-05
					 4.41108000E-05	 8.65723000E-05	 1.21054000E-05
					 3.00248000E-05	 9.24069000E-05	 1.21054000E-05
					 1.51995000E-05	 9.59662000E-05	 1.21054000E-05
					 9.22371000E-05	 1.46089000E-05	 1.21060000E-05
					 8.88161000E-05	 2.88581000E-05	 1.21060000E-05
					 8.32083000E-05	 4.23967000E-05	 1.21060000E-05
					 7.55515000E-05	 5.48914000E-05	 1.21060000E-05
					 6.60344000E-05	 6.60344000E-05	 1.21060000E-05
					 5.48914000E-05	 7.55515000E-05	 1.21060000E-05
					 4.23967000E-05	 8.32083000E-05	 1.21060000E-05
					 2.88581000E-05	 8.88161000E-05	 1.21060000E-05
					 1.46089000E-05	 9.22371000E-05	 1.21060000E-05
					 8.89153000E-05	 1.40828000E-05	 1.21064000E-05
					 8.56176000E-05	 2.78188000E-05	 1.21064000E-05
					 8.02117000E-05	 4.08699000E-05	 1.21064000E-05
					 7.28307000E-05	 5.29146000E-05	 1.21064000E-05
					 6.36563000E-05	 6.36563000E-05	 1.21064000E-05
					 5.29146000E-05	 7.28307000E-05	 1.21064000E-05
					 4.08699000E-05	 8.02117000E-05	 1.21064000E-05
					 2.78188000E-05	 8.56176000E-05	 1.21064000E-05
					 1.40828000E-05	 8.89153000E-05	 1.21064000E-05
					 8.59454000E-05	 1.36124000E-05	 1.21068000E-05
					 8.27578000E-05	 2.68896000E-05	 1.21068000E-05
					 7.75324000E-05	 3.95047000E-05	 1.21068000E-05
					 7.03980000E-05	 5.11471000E-05	 1.21068000E-05
					 6.15301000E-05	 6.15301000E-05	 1.21068000E-05
					 5.11471000E-05	 7.03980000E-05	 1.21068000E-05
					 3.95047000E-05	 7.75324000E-05	 1.21068000E-05
					 2.68896000E-05	 8.27578000E-05	 1.21068000E-05
					 1.36124000E-05	 8.59454000E-05	 1.21068000E-05
					 8.32813000E-05	 1.31905000E-05	 1.21071000E-05
					 8.01925000E-05	 2.60561000E-05	 1.21071000E-05
					 7.51292000E-05	 3.82802000E-05	 1.21071000E-05
					 6.82159000E-05	 4.95617000E-05	 1.21071000E-05
					 5.96228000E-05	 5.96228000E-05	 1.21071000E-05
					 4.95617000E-05	 6.82159000E-05	 1.21071000E-05
					 3.82802000E-05	 7.51292000E-05	 1.21071000E-05
					 2.60561000E-05	 8.01925000E-05	 1.21071000E-05
					 1.31905000E-05	 8.32813000E-05	 1.21071000E-05
					 8.08850000E-05	 1.28109000E-05	 1.21074000E-05
					 7.78851000E-05	 2.53064000E-05	 1.21074000E-05
					 7.29674000E-05	 3.71787000E-05	 1.21074000E-05
					 6.62530000E-05	 4.81356000E-05	 1.21074000E-05
					 5.79072000E-05	 5.79072000E-05	 1.21074000E-05
					 4.81356000E-05	 6.62530000E-05	 1.21074000E-05
					 3.71787000E-05	 7.29674000E-05	 1.21074000E-05
					 2.53064000E-05	 7.78851000E-05	 1.21074000E-05
					 1.28109000E-05	 8.08850000E-05	 1.21074000E-05
					 7.87241000E-05	 1.24687000E-05	 1.21076000E-05
					 7.58044000E-05	 2.46303000E-05	 1.21076000E-05
					 7.10181000E-05	 3.61855000E-05	 1.21076000E-05
					 6.44831000E-05	 4.68497000E-05	 1.21076000E-05
					 5.63603000E-05	 5.63603000E-05	 1.21076000E-05
					 4.68497000E-05	 6.44831000E-05	 1.21076000E-05
					 3.61855000E-05	 7.10181000E-05	 1.21076000E-05
					 2.46303000E-05	 7.58044000E-05	 1.21076000E-05
					 1.24687000E-05	 7.87241000E-05	 1.21076000E-05
					 7.67717000E-05	 1.21594000E-05	 1.21077000E-05
					 7.39244000E-05	 2.40195000E-05	 1.21077000E-05
					 6.92568000E-05	 3.52881000E-05	 1.21077000E-05
					 6.28838000E-05	 4.56878000E-05	 1.21077000E-05
					 5.49625000E-05	 5.49625000E-05	 1.21077000E-05
					 4.56878000E-05	 6.28838000E-05	 1.21077000E-05
					 3.52881000E-05	 6.92568000E-05	 1.21077000E-05
					 2.40195000E-05	 7.39244000E-05	 1.21077000E-05
					 1.21594000E-05	 7.67717000E-05	 1.21077000E-05
					 7.50045000E-05	 1.18795000E-05	 1.21078000E-05
					 7.22227000E-05	 2.34666000E-05	 1.21078000E-05
					 6.76625000E-05	 3.44758000E-05	 1.21078000E-05
					 6.14363000E-05	 4.46361000E-05	 1.21078000E-05
					 5.36973000E-05	 5.36973000E-05	 1.21078000E-05
					 4.46361000E-05	 6.14363000E-05	 1.21078000E-05
					 3.44758000E-05	 6.76625000E-05	 1.21078000E-05
					 2.34666000E-05	 7.22227000E-05	 1.21078000E-05
					 1.18795000E-05	 7.50045000E-05	 1.21078000E-05
					 7.34027000E-05	 1.16258000E-05	 1.21080000E-05
					 7.06803000E-05	 2.29654000E-05	 1.21080000E-05
					 6.62175000E-05	 3.37395000E-05	 1.21080000E-05
					 6.01242000E-05	 4.36828000E-05	 1.21080000E-05
					 5.25505000E-05	 5.25505000E-05	 1.21080000E-05
					 4.36828000E-05	 6.01242000E-05	 1.21080000E-05
					 3.37395000E-05	 6.62175000E-05	 1.21080000E-05
					 2.29654000E-05	 7.06803000E-05	 1.21080000E-05
					 1.16258000E-05	 7.34027000E-05	 1.21080000E-05
					 7.19491000E-05	 1.13956000E-05	 1.21080000E-05
					 6.92806000E-05	 2.25106000E-05	 1.21080000E-05
					 6.49062000E-05	 3.30714000E-05	 1.21080000E-05
					 5.89336000E-05	 4.28178000E-05	 1.21080000E-05
					 5.15099000E-05	 5.15099000E-05	 1.21080000E-05
					 4.28178000E-05	 5.89336000E-05	 1.21080000E-05
					 3.30714000E-05	 6.49062000E-05	 1.21080000E-05
					 2.25106000E-05	 6.92806000E-05	 1.21080000E-05
					 1.13956000E-05	 7.19491000E-05	 1.21080000E-05
					 7.06290000E-05	 1.11865000E-05	 1.21081000E-05
					 6.80095000E-05	 2.20976000E-05	 1.21081000E-05
					 6.37153000E-05	 3.24646000E-05	 1.21081000E-05