    1C
    1U cylinder.inp                                                     
    1UUSER                                                              
    1UDATE              26.february.2021                                
    1UTIME              10:04:15                                        
    1UHOST                                                              
    1UPGM               CalculiX                                        
    1UVERSION           Version 2.17                             
    1UCOMPILETIME       Thu Jul 23 21:29:36 CEST 2020                    
    1UDIR                                                               
    1UDBN                                                               
    1UMAT    1AL                                                        
    2C                          3120                                     1
 -1      1561 1.00050E+01 0.00000E+00 0.00000E+00
 -1      1563 9.99500E+00 0.00000E+00 0.00000E+00
 -1      1564 1.00050E+01 0.00000E+00 1.00000E+02
 -1      1566 9.99500E+00 0.00000E+00 1.00000E+02
 -1      1567 9.78637E+00 2.08016E+00 0.00000E+00
 -1      1569 9.77659E+00 2.07808E+00 0.00000E+00
 -1      1570 9.14002E+00 4.06940E+00 0.00000E+00
 -1      1572 9.13089E+00 4.06533E+00 0.00000E+00
 -1      1573 8.09422E+00 5.88079E+00 0.00000E+00
 -1      1575 8.08612E+00 5.87491E+00 0.00000E+00
 -1      1576 6.69465E+00 7.43516E+00 0.00000E+00
 -1      1578 6.68796E+00 7.42773E+00 0.00000E+00
 -1      1579 5.00250E+00 8.66458E+00 0.00000E+00
 -1      1581 4.99750E+00 8.65592E+00 0.00000E+00
 -1      1582 3.09172E+00 9.51532E+00 0.00000E+00
 -1      1584 3.08862E+00 9.50581E+00 0.00000E+00
 -1      1585 1.04581E+00 9.95019E+00 0.00000E+00
 -1      1587 1.04476E+00 9.94025E+00 0.00000E+00
 -1      1588-1.04581E+00 9.95019E+00 0.00000E+00
 -1      1590-1.04476E+00 9.94025E+00 0.00000E+00
 -1      1591-3.09172E+00 9.51532E+00 0.00000E+00
 -1      1593-3.08862E+00 9.50581E+00 0.00000E+00
 -1      1594-5.00250E+00 8.66458E+00 0.00000E+00
 -1      1596-4.99750E+00 8.65592E+00 0.00000E+00
 -1      1597-6.69465E+00 7.43516E+00 0.00000E+00
 -1      1599-6.68796E+00 7.42773E+00 0.00000E+00
 -1      1600-8.09422E+00 5.88079E+00 0.00000E+00
 -1      1602-8.08612E+00 5.87491E+00 0.00000E+00
 -1      1603-9.14002E+00 4.06940E+00 0.00000E+00
 -1      1605-9.13089E+00 4.06533E+00 0.00000E+00
 -1      1606-9.78637E+00 2.08016E+00 0.00000E+00
 -1      1608-9.77659E+00 2.07808E+00 0.00000E+00
 -1      1609-1.00050E+01-2.09850E-14 0.00000E+00
 -1      1611-9.99500E+00-2.09746E-14 0.00000E+00
 -1      1612-9.78637E+00-2.08016E+00 0.00000E+00
 -1      1614-9.77659E+00-2.07808E+00 0.00000E+00
 -1      1615-9.14002E+00-4.06940E+00 0.00000E+00
 -1      1617-9.13089E+00-4.06533E+00 0.00000E+00
 -1      1618-8.09422E+00-5.88079E+00 0.00000E+00
 -1      1620-8.08612E+00-5.87491E+00 0.00000E+00
 -1      1621-6.69465E+00-7.43516E+00 0.00000E+00
 -1      1623-6.68796E+00-7.42773E+00 0.00000E+00
 -1      1624-5.00250E+00-8.66458E+00 0.00000E+00
 -1      1626-4.99750E+00-8.65592E+00 0.00000E+00
 -1      1627-3.09172E+00-9.51532E+00 0.00000E+00
 -1      1629-3.08862E+00-9.50581E+00 0.00000E+00
 -1      1630-1.04581E+00-9.95019E+00 0.00000E+00
 -1      1632-1.04476E+00-9.94025E+00 0.00000E+00
 -1      1633 1.04581E+00-9.95019E+00 0.00000E+00
 -1      1635 1.04476E+00-9.94025E+00 0.00000E+00
 -1      1636 3.09172E+00-9.51532E+00 0.00000E+00
 -1      1638 3.08862E+00-9.50581E+00 0.00000E+00
 -1      1639 5.00250E+00-8.66458E+00 0.00000E+00
 -1      1641 4.99750E+00-8.65592E+00 0.00000E+00
 -1      1642 6.69465E+00-7.43516E+00 0.00000E+00
 -1      1644 6.68796E+00-7.42773E+00 0.00000E+00
 -1      1645 8.09422E+00-5.88079E+00 0.00000E+00
 -1      1647 8.08612E+00-5.87491E+00 0.00000E+00
 -1      1648 9.14002E+00-4.06940E+00 0.00000E+00
 -1      1650 9.13089E+00-4.06533E+00 0.00000E+00
 -1      1651 9.78637E+00-2.08016E+00 0.00000E+00
 -1      1653 9.77659E+00-2.07808E+00 0.00000E+00
 -1      1654 1.00050E+01 0.00000E+00 1.96078E+00
 -1      1656 9.99500E+00 0.00000E+00 1.96078E+00
 -1      1657 1.00050E+01 0.00000E+00 3.92157E+00
 -1      1659 9.99500E+00 0.00000E+00 3.92157E+00
 -1      1660 1.00050E+01 0.00000E+00 5.88235E+00
 -1      1662 9.99500E+00 0.00000E+00 5.88235E+00
 -1      1663 1.00050E+01-1.74428E-20 7.84314E+00
 -1      1665 9.99500E+00 1.74428E-20 7.84314E+00
 -1      1666 1.00050E+01-1.74428E-20 9.80392E+00
 -1      1668 9.99500E+00 1.74428E-20 9.80392E+00
 -1      1669 1.00050E+01 0.00000E+00 1.17647E+01
 -1      1671 9.99500E+00 0.00000E+00 1.17647E+01
 -1      1672 1.00050E+01 0.00000E+00 1.37255E+01
 -1      1674 9.99500E+00 0.00000E+00 1.37255E+01
 -1      1675 1.00050E+01 0.00000E+00 1.56863E+01
 -1      1677 9.99500E+00 0.00000E+00 1.56863E+01
 -1      1678 1.00050E+01 0.00000E+00 1.76471E+01
 -1      1680 9.99500E+00 0.00000E+00 1.76471E+01
 -1      1681 1.00050E+01 0.00000E+00 1.96078E+01
 -1      1683 9.99500E+00 0.00000E+00 1.96078E+01
 -1      1684 1.00050E+01 0.00000E+00 2.15686E+01
 -1      1686 9.99500E+00 0.00000E+00 2.15686E+01
 -1      1687 1.00050E+01 0.00000E+00 2.35294E+01
 -1      1689 9.99500E+00 0.00000E+00 2.35294E+01
 -1      1690 1.00050E+01 0.00000E+00 2.54902E+01
 -1      1692 9.99500E+00 0.00000E+00 2.54902E+01
 -1      1693 1.00050E+01 0.00000E+00 2.74510E+01
 -1      1695 9.99500E+00 0.00000E+00 2.74510E+01
 -1      1696 1.00050E+01 0.00000E+00 2.94118E+01
 -1      1698 9.99500E+00 0.00000E+00 2.94118E+01
 -1      1699 1.00050E+01 0.00000E+00 3.13725E+01
 -1      1701 9.99500E+00 0.00000E+00 3.13725E+01
 -1      1702 1.00050E+01 0.00000E+00 3.33333E+01
 -1      1704 9.99500E+00 0.00000E+00 3.33333E+01
 -1      1705 1.00050E+01 0.00000E+00 3.52941E+01
 -1      1707 9.99500E+00 0.00000E+00 3.52941E+01
 -1      1708 1.00050E+01 0.00000E+00 3.72549E+01
 -1      1710 9.99500E+00 0.00000E+00 3.72549E+01
 -1      1711 1.00050E+01 0.00000E+00 3.92157E+01
 -1      1713 9.99500E+00 0.00000E+00 3.92157E+01
 -1      1714 1.00050E+01 0.00000E+00 4.11765E+01
 -1      1716 9.99500E+00 0.00000E+00 4.11765E+01
 -1      1717 1.00050E+01 0.00000E+00 4.31373E+01
 -1      1719 9.99500E+00 0.00000E+00 4.31373E+01
 -1      1720 1.00050E+01 0.00000E+00 4.50980E+01
 -1      1722 9.99500E+00 0.00000E+00 4.50980E+01
 -1      1723 1.00050E+01 0.00000E+00 4.70588E+01
 -1      1725 9.99500E+00 0.00000E+00 4.70588E+01
 -1      1726 1.00050E+01 0.00000E+00 4.90196E+01
 -1      1728 9.99500E+00 0.00000E+00 4.90196E+01
 -1      1729 1.00050E+01 0.00000E+00 5.09804E+01
 -1      1731 9.99500E+00 0.00000E+00 5.09804E+01
 -1      1732 1.00050E+01 0.00000E+00 5.29412E+01
 -1      1734 9.99500E+00 0.00000E+00 5.29412E+01
 -1      1735 1.00050E+01 0.00000E+00 5.49020E+01
 -1      1737 9.99500E+00 0.00000E+00 5.49020E+01
 -1      1738 1.00050E+01 0.00000E+00 5.68627E+01
 -1      1740 9.99500E+00 0.00000E+00 5.68627E+01
 -1      1741 1.00050E+01 0.00000E+00 5.88235E+01
 -1      1743 9.99500E+00 0.00000E+00 5.88235E+01
 -1      1744 1.00050E+01 0.00000E+00 6.07843E+01
 -1      1746 9.99500E+00 0.00000E+00 6.07843E+01
 -1      1747 1.00050E+01 0.00000E+00 6.27451E+01
 -1      1749 9.99500E+00 0.00000E+00 6.27451E+01
 -1      1750 1.00050E+01 0.00000E+00 6.47059E+01
 -1      1752 9.99500E+00 0.00000E+00 6.47059E+01
 -1      1753 1.00050E+01 0.00000E+00 6.66667E+01
 -1      1755 9.99500E+00 0.00000E+00 6.66667E+01
 -1      1756 1.00050E+01 0.00000E+00 6.86274E+01
 -1      1758 9.99500E+00 0.00000E+00 6.86274E+01
 -1      1759 1.00050E+01 0.00000E+00 7.05882E+01
 -1      1761 9.99500E+00 0.00000E+00 7.05882E+01
 -1      1762 1.00050E+01 0.00000E+00 7.25490E+01
 -1      1764 9.99500E+00 0.00000E+00 7.25490E+01
 -1      1765 1.00050E+01 0.00000E+00 7.45098E+01
 -1      1767 9.99500E+00 0.00000E+00 7.45098E+01
 -1      1768 1.00050E+01 0.00000E+00 7.64706E+01
 -1      1770 9.99500E+00 0.00000E+00 7.64706E+01
 -1      1771 1.00050E+01 0.00000E+00 7.84314E+01
 -1      1773 9.99500E+00 0.00000E+00 7.84314E+01
 -1      1774 1.00050E+01 0.00000E+00 8.03922E+01
 -1      1776 9.99500E+00 0.00000E+00 8.03922E+01
 -1      1777 1.00050E+01 0.00000E+00 8.23529E+01
 -1      1779 9.99500E+00 0.00000E+00 8.23529E+01
 -1      1780 1.00050E+01 0.00000E+00 8.43137E+01
 -1      1782 9.99500E+00 0.00000E+00 8.43137E+01
 -1      1783 1.00050E+01 0.00000E+00 8.62745E+01
 -1      1785 9.99500E+00 0.00000E+00 8.62745E+01
 -1      1786 1.00050E+01 0.00000E+00 8.82353E+01
 -1      1788 9.99500E+00 0.00000E+00 8.82353E+01
 -1      1789 1.00050E+01 0.00000E+00 9.01961E+01
 -1      1791 9.99500E+00 0.00000E+00 9.01961E+01
 -1      1792 1.00050E+01 0.00000E+00 9.21569E+01
 -1      1794 9.99500E+00 0.00000E+00 9.21569E+01
 -1      1795 1.00050E+01 0.00000E+00 9.41176E+01
 -1      1797 9.99500E+00 0.00000E+00 9.41176E+01
 -1      1798 1.00050E+01 0.00000E+00 9.60784E+01
 -1      1800 9.99500E+00 0.00000E+00 9.60784E+01
 -1      1801 1.00050E+01 0.00000E+00 9.80392E+01
 -1      1803 9.99500E+00 0.00000E+00 9.80392E+01
 -1      1804 9.78637E+00 2.08016E+00 1.00000E+02
 -1      1806 9.77659E+00 2.07808E+00 1.00000E+02
 -1      1807 9.14002E+00 4.06940E+00 1.00000E+02
 -1      1809 9.13089E+00 4.06533E+00 1.00000E+02
 -1      1810 8.09422E+00 5.88079E+00 1.00000E+02
 -1      1812 8.08612E+00 5.87491E+00 1.00000E+02
 -1      1813 6.69465E+00 7.43516E+00 1.00000E+02
 -1      1815 6.68796E+00 7.42773E+00 1.00000E+02
 -1      1816 5.00250E+00 8.66458E+00 1.00000E+02
 -1      1818 4.99750E+00 8.65592E+00 1.00000E+02
 -1      1819 3.09172E+00 9.51532E+00 1.00000E+02
 -1      1821 3.08862E+00 9.50581E+00 1.00000E+02
 -1      1822 1.04581E+00 9.95019E+00 1.00000E+02
 -1      1824 1.04476E+00 9.94025E+00 1.00000E+02
 -1      1825-1.04581E+00 9.95019E+00 1.00000E+02
 -1      1827-1.04476E+00 9.94025E+00 1.00000E+02
 -1      1828-3.09172E+00 9.51532E+00 1.00000E+02
 -1      1830-3.08862E+00 9.50581E+00 1.00000E+02
 -1      1831-5.00250E+00 8.66458E+00 1.00000E+02
 -1      1833-4.99750E+00 8.65592E+00 1.00000E+02
 -1      1834-6.69465E+00 7.43516E+00 1.00000E+02
 -1      1836-6.68796E+00 7.42773E+00 1.00000E+02
 -1      1837-8.09422E+00 5.88079E+00 1.00000E+02
 -1      1839-8.08612E+00 5.87491E+00 1.00000E+02
 -1      1840-9.14002E+00 4.06940E+00 1.00000E+02
 -1      1842-9.13089E+00 4.06533E+00 1.00000E+02
 -1      1843-9.78637E+00 2.08016E+00 1.00000E+02
 -1      1845-9.77659E+00 2.07808E+00 1.00000E+02
 -1      1846-1.00050E+01-2.09850E-14 1.00000E+02
 -1      1848-9.99500E+00-2.09746E-14 1.00000E+02
 -1      1849-9.78637E+00-2.08016E+00 1.00000E+02
 -1      1851-9.77659E+00-2.07808E+00 1.00000E+02
 -1      1852-9.14002E+00-4.06940E+00 1.00000E+02
 -1      1854-9.13089E+00-4.06533E+00 1.00000E+02
 -1      1855-8.09422E+00-5.88079E+00 1.00000E+02
 -1      1857-8.08612E+00-5.87491E+00 1.00000E+02
 -1      1858-6.69465E+00-7.43516E+00 1.00000E+02
 -1      1860-6.68796E+00-7.42773E+00 1.00000E+02
 -1      1861-5.00250E+00-8.66458E+00 1.00000E+02
 -1      1863-4.99750E+00-8.65592E+00 1.00000E+02
 -1      1864-3.09172E+00-9.51532E+00 1.00000E+02
 -1      1866-3.08862E+00-9.50581E+00 1.00000E+02
 -1      1867-1.04581E+00-9.95019E+00 1.00000E+02
 -1      1869-1.04476E+00-9.94025E+00 1.00000E+02
 -1      1870 1.04581E+00-9.95019E+00 1.00000E+02
 -1      1872 1.04476E+00-9.94025E+00 1.00000E+02
 -1      1873 3.09172E+00-9.51532E+00 1.00000E+02
 -1      1875 3.08862E+00-9.50581E+00 1.00000E+02
 -1      1876 5.00250E+00-8.66458E+00 1.00000E+02
 -1      1878 4.99750E+00-8.65592E+00 1.00000E+02
 -1      1879 6.69465E+00-7.43516E+00 1.00000E+02
 -1      1881 6.68796E+00-7.42773E+00 1.00000E+02
 -1      1882 8.09422E+00-5.88079E+00 1.00000E+02
 -1      1884 8.08612E+00-5.87491E+00 1.00000E+02
 -1      1885 9.14002E+00-4.06940E+00 1.00000E+02
 -1      1887 9.13089E+00-4.06533E+00 1.00000E+02
 -1      1888 9.78637E+00-2.08016E+00 1.00000E+02
 -1      1890 9.77659E+00-2.07808E+00 1.00000E+02
 -1      1891 9.78637E+00 2.08016E+00 1.96078E+00
 -1      1893 9.77659E+00 2.07808E+00 1.96078E+00
 -1      1894 9.78637E+00 2.08016E+00 3.92157E+00
 -1      1896 9.77659E+00 2.07808E+00 3.92157E+00
 -1      1897 9.78637E+00 2.08016E+00 5.88235E+00
 -1      1899 9.77659E+00 2.07808E+00 5.88235E+00
 -1      1900 9.78637E+00 2.08016E+00 7.84314E+00
 -1      1902 9.77659E+00 2.07808E+00 7.84314E+00
 -1      1903 9.78637E+00 2.08016E+00 9.80392E+00
 -1      1905 9.77659E+00 2.07808E+00 9.80392E+00
 -1      1906 9.78637E+00 2.08016E+00 1.17647E+01
 -1      1908 9.77659E+00 2.07808E+00 1.17647E+01
 -1      1909 9.78637E+00 2.08016E+00 1.37255E+01
 -1      1911 9.77659E+00 2.07808E+00 1.37255E+01
 -1      1912 9.78637E+00 2.08016E+00 1.56863E+01
 -1      1914 9.77659E+00 2.07808E+00 1.56863E+01
 -1      1915 9.78637E+00 2.08016E+00 1.76471E+01
 -1      1917 9.77659E+00 2.07808E+00 1.76471E+01
 -1      1918 9.78637E+00 2.08016E+00 1.96078E+01
 -1      1920 9.77659E+00 2.07808E+00 1.96078E+01
 -1      1921 9.78637E+00 2.08016E+00 2.15686E+01
 -1      1923 9.77659E+00 2.07808E+00 2.15686E+01
 -1      1924 9.78637E+00 2.08016E+00 2.35294E+01
 -1      1926 9.77659E+00 2.07808E+00 2.35294E+01
 -1      1927 9.78637E+00 2.08016E+00 2.54902E+01
 -1      1929 9.77659E+00 2.07808E+00 2.54902E+01
 -1      1930 9.78637E+00 2.08016E+00 2.74510E+01
 -1      1932 9.77659E+00 2.07808E+00 2.74510E+01
 -1      1933 9.78637E+00 2.08016E+00 2.94118E+01
 -1      1935 9.77659E+00 2.07808E+00 2.94118E+01
 -1      1936 9.78637E+00 2.08016E+00 3.13725E+01
 -1      1938 9.77659E+00 2.07808E+00 3.13725E+01
 -1      1939 9.78637E+00 2.08016E+00 3.33333E+01
 -1      1941 9.77659E+00 2.07808E+00 3.33333E+01
 -1      1942 9.78637E+00 2.08016E+00 3.52941E+01
 -1      1944 9.77659E+00 2.07808E+00 3.52941E+01
 -1      1945 9.78637E+00 2.08016E+00 3.72549E+01
 -1      1947 9.77659E+00 2.07808E+00 3.72549E+01
 -1      1948 9.78637E+00 2.08016E+00 3.92157E+01
 -1      1950 9.77659E+00 2.07808E+00 3.92157E+01
 -1      1951 9.78637E+00 2.08016E+00 4.11765E+01
 -1      1953 9.77659E+00 2.07808E+00 4.11765E+01
 -1      1954 9.78637E+00 2.08016E+00 4.31373E+01
 -1      1956 9.77659E+00 2.07808E+00 4.31373E+01
 -1      1957 9.78637E+00 2.08016E+00 4.50980E+01
 -1      1959 9.77659E+00 2.07808E+00 4.50980E+01
 -1      1960 9.78637E+00 2.08016E+00 4.70588E+01
 -1      1962 9.77659E+00 2.07808E+00 4.70588E+01
 -1      1963 9.78637E+00 2.08016E+00 4.90196E+01
 -1      1965 9.77659E+00 2.07808E+00 4.90196E+01
 -1      1966 9.78637E+00 2.08016E+00 5.09804E+01
 -1      1968 9.77659E+00 2.07808E+00 5.09804E+01
 -1      1969 9.78637E+00 2.08016E+00 5.29412E+01
 -1      1971 9.77659E+00 2.07808E+00 5.29412E+01
 -1      1972 9.78637E+00 2.08016E+00 5.49020E+01
 -1      1974 9.77659E+00 2.07808E+00 5.49020E+01
 -1      1975 9.78637E+00 2.08016E+00 5.68627E+01
 -1      1977 9.77659E+00 2.07808E+00 5.68627E+01
 -1      1978 9.78637E+00 2.08016E+00 5.88235E+01
 -1      1980 9.77659E+00 2.07808E+00 5.88235E+01
 -1      1981 9.78637E+00 2.08016E+00 6.07843E+01
 -1      1983 9.77659E+00 2.07808E+00 6.07843E+01
 -1      1984 9.78637E+00 2.08016E+00 6.27451E+01
 -1      1986 9.77659E+00 2.07808E+00 6.27451E+01
 -1      1987 9.78637E+00 2.08016E+00 6.47059E+01
 -1      1989 9.77659E+00 2.07808E+00 6.47059E+01
 -1      1990 9.78637E+00 2.08016E+00 6.66667E+01
 -1      1992 9.77659E+00 2.07808E+00 6.66667E+01
 -1      1993 9.78637E+00 2.08016E+00 6.86274E+01
 -1      1995 9.77659E+00 2.07808E+00 6.86274E+01
 -1      1996 9.78637E+00 2.08016E+00 7.05882E+01
 -1      1998 9.77659E+00 2.07808E+00 7.05882E+01
 -1      1999 9.78637E+00 2.08016E+00 7.25490E+01
 -1      2001 9.77659E+00 2.07808E+00 7.25490E+01
 -1      2002 9.78637E+00 2.08016E+00 7.45098E+01
 -1      2004 9.77659E+00 2.07808E+00 7.45098E+01
 -1      2005 9.78637E+00 2.08016E+00 7.64706E+01
 -1      2007 9.77659E+00 2.07808E+00 7.64706E+01
 -1      2008 9.78637E+00 2.08016E+00 7.84314E+01
 -1      2010 9.77659E+00 2.07808E+00 7.84314E+01
 -1      2011 9.78637E+00 2.08016E+00 8.03922E+01
 -1      2013 9.77659E+00 2.07808E+00 8.03922E+01
 -1      2014 9.78637E+00 2.08016E+00 8.23529E+01
 -1      2016 9.77659E+00 2.07808E+00 8.23529E+01
 -1      2017 9.78637E+00 2.08016E+00 8.43137E+01
 -1      2019 9.77659E+00 2.07808E+00 8.43137E+01
 -1      2020 9.78637E+00 2.08016E+00 8.62745E+01
 -1      2022 9.77659E+00 2.07808E+00 8.62745E+01
 -1      2023 9.78637E+00 2.08016E+00 8.82353E+01
 -1      2025 9.77659E+00 2.07808E+00 8.82353E+01
 -1      2026 9.78637E+00 2.08016E+00 9.01961E+01
 -1      2028 9.77659E+00 2.07808E+00 9.01961E+01
 -1      2029 9.78637E+00 2.08016E+00 9.21569E+01
 -1      2031 9.77659E+00 2.07808E+00 9.21569E+01
 -1      2032 9.78637E+00 2.08016E+00 9.41176E+01
 -1      2034 9.77659E+00 2.07808E+00 9.41176E+01
 -1      2035 9.78637E+00 2.08016E+00 9.60784E+01
 -1      2037 9.77659E+00 2.07808E+00 9.60784E+01
 -1      2038 9.78637E+00 2.08016E+00 9.80392E+01
 -1      2040 9.77659E+00 2.07808E+00 9.80392E+01
 -1      2041 9.14002E+00 4.06940E+00 1.96078E+00
 -1      2043 9.13089E+00 4.06533E+00 1.96078E+00
 -1      2044 9.14002E+00 4.06940E+00 3.92157E+00
 -1      2046 9.13089E+00 4.06533E+00 3.92157E+00
 -1      2047 9.14002E+00 4.06940E+00 5.88235E+00
 -1      2049 9.13089E+00 4.06533E+00 5.88235E+00
 -1      2050 9.14002E+00 4.06940E+00 7.84314E+00
 -1      2052 9.13089E+00 4.06533E+00 7.84314E+00
 -1      2053 9.14002E+00 4.06940E+00 9.80392E+00
 -1      2055 9.13089E+00 4.06533E+00 9.80392E+00
 -1      2056 9.14002E+00 4.06940E+00 1.17647E+01
 -1      2058 9.13089E+00 4.06533E+00 1.17647E+01
 -1      2059 9.14002E+00 4.06940E+00 1.37255E+01
 -1      2061 9.13089E+00 4.06533E+00 1.37255E+01
 -1      2062 9.14002E+00 4.06940E+00 1.56863E+01
 -1      2064 9.13089E+00 4.06533E+00 1.56863E+01
 -1      2065 9.14002E+00 4.06940E+00 1.76471E+01
 -1      2067 9.13089E+00 4.06533E+00 1.76471E+01
 -1      2068 9.14002E+00 4.06940E+00 1.96078E+01
 -1      2070 9.13089E+00 4.06533E+00 1.96078E+01
 -1      2071 9.14002E+00 4.06940E+00 2.15686E+01
 -1      2073 9.13089E+00 4.06533E+00 2.15686E+01
 -1      2074 9.14002E+00 4.06940E+00 2.35294E+01
 -1      2076 9.13089E+00 4.06533E+00 2.35294E+01
 -1      2077 9.14002E+00 4.06940E+00 2.54902E+01
 -1      2079 9.13089E+00 4.06533E+00 2.54902E+01
 -1      2080 9.14002E+00 4.06940E+00 2.74510E+01
 -1      2082 9.13089E+00 4.06533E+00 2.74510E+01
 -1      2083 9.14002E+00 4.06940E+00 2.94118E+01
 -1      2085 9.13089E+00 4.06533E+00 2.94118E+01
 -1      2086 9.14002E+00 4.06940E+00 3.13725E+01
 -1      2088 9.13089E+00 4.06533E+00 3.13725E+01
 -1      2089 9.14002E+00 4.06940E+00 3.33333E+01
 -1      2091 9.13089E+00 4.06533E+00 3.33333E+01
 -1      2092 9.14002E+00 4.06940E+00 3.52941E+01
 -1      2094 9.13089E+00 4.06533E+00 3.52941E+01
 -1      2095 9.14002E+00 4.06940E+00 3.72549E+01
 -1      2097 9.13089E+00 4.06533E+00 3.72549E+01
 -1      2098 9.14002E+00 4.06940E+00 3.92157E+01
 -1      2100 9.13089E+00 4.06533E+00 3.92157E+01
 -1      2101 9.14002E+00 4.06940E+00 4.11765E+01
 -1      2103 9.13089E+00 4.06533E+00 4.11765E+01
 -1      2104 9.14002E+00 4.06940E+00 4.31373E+01
 -1      2106 9.13089E+00 4.06533E+00 4.31373E+01
 -1      2107 9.14002E+00 4.06940E+00 4.50980E+01
 -1      2109 9.13089E+00 4.06533E+00 4.50980E+01
 -1      2110 9.14002E+00 4.06940E+00 4.70588E+01
 -1      2112 9.13089E+00 4.06533E+00 4.70588E+01
 -1      2113 9.14002E+00 4.06940E+00 4.90196E+01
 -1      2115 9.13089E+00 4.06533E+00 4.90196E+01
 -1      2116 9.14002E+00 4.06940E+00 5.09804E+01
 -1      2118 9.13089E+00 4.06533E+00 5.09804E+01
 -1      2119 9.14002E+00 4.06940E+00 5.29412E+01
 -1      2121 9.13089E+00 4.06533E+00 5.29412E+01
 -1      2122 9.14002E+00 4.06940E+00 5.49020E+01
 -1      2124 9.13089E+00 4.06533E+00 5.49020E+01
 -1      2125 9.14002E+00 4.06940E+00 5.68627E+01
 -1      2127 9.13089E+00 4.06533E+00 5.68627E+01
 -1      2128 9.14002E+00 4.06940E+00 5.88235E+01
 -1      2130 9.13089E+00 4.06533E+00 5.88235E+01
 -1      2131 9.14002E+00 4.06940E+00 6.07843E+01
 -1      2133 9.13089E+00 4.06533E+00 6.07843E+01
 -1      2134 9.14002E+00 4.06940E+00 6.27451E+01
 -1      2136 9.13089E+00 4.06533E+00 6.27451E+01
 -1      2137 9.14002E+00 4.06940E+00 6.47059E+01
 -1      2139 9.13089E+00 4.06533E+00 6.47059E+01
 -1      2140 9.14002E+00 4.06940E+00 6.66667E+01
 -1      2142 9.13089E+00 4.06533E+00 6.66667E+01
 -1      2143 9.14002E+00 4.06940E+00 6.86274E+01
 -1      2145 9.13089E+00 4.06533E+00 6.86274E+01
 -1      2146 9.14002E+00 4.06940E+00 7.05882E+01
 -1      2148 9.13089E+00 4.06533E+00 7.05882E+01
 -1      2149 9.14002E+00 4.06940E+00 7.25490E+01
 -1      2151 9.13089E+00 4.06533E+00 7.25490E+01
 -1      2152 9.14002E+00 4.06940E+00 7.45098E+01
 -1      2154 9.13089E+00 4.06533E+00 7.45098E+01
 -1      2155 9.14002E+00 4.06940E+00 7.64706E+01
 -1      2157 9.13089E+00 4.06533E+00 7.64706E+01
 -1      2158 9.14002E+00 4.06940E+00 7.84314E+01
 -1      2160 9.13089E+00 4.06533E+00 7.84314E+01
 -1      2161 9.14002E+00 4.06940E+00 8.03922E+01
 -1      2163 9.13089E+00 4.06533E+00 8.03922E+01
 -1      2164 9.14002E+00 4.06940E+00 8.23529E+01
 -1      2166 9.13089E+00 4.06533E+00 8.23529E+01
 -1      2167 9.14002E+00 4.06940E+00 8.43137E+01
 -1      2169 9.13089E+00 4.06533E+00 8.43137E+01
 -1      2170 9.14002E+00 4.06940E+00 8.62745E+01
 -1      2172 9.13089E+00 4.06533E+00 8.62745E+01
 -1      2173 9.14002E+00 4.06940E+00 8.82353E+01
 -1      2175 9.13089E+00 4.06533E+00 8.82353E+01
 -1      2176 9.14002E+00 4.06940E+00 9.01961E+01
 -1      2178 9.13089E+00 4.06533E+00 9.01961E+01
 -1      2179 9.14002E+00 4.06940E+00 9.21569E+01
 -1      2181 9.13089E+00 4.06533E+00 9.21569E+01
 -1      2182 9.14002E+00 4.06940E+00 9.41176E+01
 -1      2184 9.13089E+00 4.06533E+00 9.41176E+01
 -1      2185 9.14002E+00 4.06940E+00 9.60784E+01
 -1      2187 9.13089E+00 4.06533E+00 9.60784E+01
 -1      2188 9.14002E+00 4.06940E+00 9.80392E+01
 -1      2190 9.13089E+00 4.06533E+00 9.80392E+01
 -1      2191 8.09422E+00 5.88079E+00 1.96078E+00
 -1      2193 8.08612E+00 5.87491E+00 1.96078E+00
 -1      2194 8.09422E+00 5.88079E+00 3.92157E+00
 -1      2196 8.08612E+00 5.87491E+00 3.92157E+00
 -1      2197 8.09422E+00 5.88079E+00 5.88235E+00
 -1      2199 8.08612E+00 5.87491E+00 5.88235E+00
 -1      2200 8.09422E+00 5.88079E+00 7.84314E+00
 -1      2202 8.08612E+00 5.87491E+00 7.84314E+00
 -1      2203 8.09422E+00 5.88079E+00 9.80392E+00
 -1      2205 8.08612E+00 5.87491E+00 9.80392E+00
 -1      2206 8.09422E+00 5.88079E+00 1.17647E+01
 -1      2208 8.08612E+00 5.87491E+00 1.17647E+01
 -1      2209 8.09422E+00 5.88079E+00 1.37255E+01
 -1      2211 8.08612E+00 5.87491E+00 1.37255E+01
 -1      2212 8.09422E+00 5.88079E+00 1.56863E+01
 -1      2214 8.08612E+00 5.87491E+00 1.56863E+01
 -1      2215 8.09422E+00 5.88079E+00 1.76471E+01
 -1      2217 8.08612E+00 5.87491E+00 1.76471E+01
 -1      2218 8.09422E+00 5.88079E+00 1.96078E+01
 -1      2220 8.08612E+00 5.87491E+00 1.96078E+01
 -1      2221 8.09422E+00 5.88079E+00 2.15686E+01
 -1      2223 8.08612E+00 5.87491E+00 2.15686E+01
 -1      2224 8.09422E+00 5.88079E+00 2.35294E+01
 -1      2226 8.08612E+00 5.87491E+00 2.35294E+01
 -1      2227 8.09422E+00 5.88079E+00 2.54902E+01
 -1      2229 8.08612E+00 5.87491E+00 2.54902E+01
 -1      2230 8.09422E+00 5.88079E+00 2.74510E+01
 -1      2232 8.08612E+00 5.87491E+00 2.74510E+01
 -1      2233 8.09422E+00 5.88079E+00 2.94118E+01
 -1      2235 8.08612E+00 5.87491E+00 2.94118E+01
 -1      2236 8.09422E+00 5.88079E+00 3.13725E+01
 -1      2238 8.08612E+00 5.87491E+00 3.13725E+01
 -1      2239 8.09422E+00 5.88079E+00 3.33333E+01
 -1      2241 8.08612E+00 5.87491E+00 3.33333E+01
 -1      2242 8.09422E+00 5.88079E+00 3.52941E+01
 -1      2244 8.08612E+00 5.87491E+00 3.52941E+01
 -1      2245 8.09422E+00 5.88079E+00 3.72549E+01
 -1      2247 8.08612E+00 5.87491E+00 3.72549E+01
 -1      2248 8.09422E+00 5.88079E+00 3.92157E+01
 -1      2250 8.08612E+00 5.87491E+00 3.92157E+01
 -1      2251 8.09422E+00 5.88079E+00 4.11765E+01
 -1      2253 8.08612E+00 5.87491E+00 4.11765E+01
 -1      2254 8.09422E+00 5.88079E+00 4.31373E+01
 -1      2256 8.08612E+00 5.87491E+00 4.31373E+01
 -1      2257 8.09422E+00 5.88079E+00 4.50980E+01
 -1      2259 8.08612E+00 5.87491E+00 4.50980E+01
 -1      2260 8.09422E+00 5.88079E+00 4.70588E+01
 -1      2262 8.08612E+00 5.87491E+00 4.70588E+01
 -1      2263 8.09422E+00 5.88079E+00 4.90196E+01
 -1      2265 8.08612E+00 5.87491E+00 4.90196E+01
 -1      2266 8.09422E+00 5.88079E+00 5.09804E+01
 -1      2268 8.08612E+00 5.87491E+00 5.09804E+01
 -1      2269 8.09422E+00 5.88079E+00 5.29412E+01
 -1      2271 8.08612E+00 5.87491E+00 5.29412E+01
 -1      2272 8.09422E+00 5.88079E+00 5.49020E+01
 -1      2274 8.08612E+00 5.87491E+00 5.49020E+01
 -1      2275 8.09422E+00 5.88079E+00 5.68627E+01
 -1      2277 8.08612E+00 5.87491E+00 5.68627E+01
 -1      2278 8.09422E+00 5.88079E+00 5.88235E+01
 -1      2280 8.08612E+00 5.87491E+00 5.88235E+01
 -1      2281 8.09422E+00 5.88079E+00 6.07843E+01
 -1      2283 8.08612E+00 5.87491E+00 6.07843E+01
 -1      2284 8.09422E+00 5.88079E+00 6.27451E+01
 -1      2286 8.08612E+00 5.87491E+00 6.27451E+01
 -1      2287 8.09422E+00 5.88079E+00 6.47059E+01
 -1      2289 8.08612E+00 5.87491E+00 6.47059E+01
 -1      2290 8.09422E+00 5.88079E+00 6.66667E+01
 -1      2292 8.08612E+00 5.87491E+00 6.66667E+01
 -1      2293 8.09422E+00 5.88079E+00 6.86274E+01
 -1      2295 8.08612E+00 5.87491E+00 6.86274E+01
 -1      2296 8.09422E+00 5.88079E+00 7.05882E+01
 -1      2298 8.08612E+00 5.87491E+00 7.05882E+01
 -1      2299 8.09422E+00 5.88079E+00 7.25490E+01
 -1      2301 8.08612E+00 5.87491E+00 7.25490E+01
 -1      2302 8.09422E+00 5.88079E+00 7.45098E+01
 -1      2304 8.08612E+00 5.87491E+00 7.45098E+01
 -1      2305 8.09422E+00 5.88079E+00 7.64706E+01
 -1      2307 8.08612E+00 5.87491E+00 7.64706E+01
 -1      2308 8.09422E+00 5.88079E+00 7.84314E+01
 -1      2310 8.08612E+00 5.87491E+00 7.84314E+01
 -1      2311 8.09422E+00 5.88079E+00 8.03922E+01
 -1      2313 8.08612E+00 5.87491E+00 8.03922E+01
 -1      2314 8.09422E+00 5.88079E+00 8.23529E+01
 -1      2316 8.08612E+00 5.87491E+00 8.23529E+01
 -1      2317 8.09422E+00 5.88079E+00 8.43137E+01
 -1      2319 8.08612E+00 5.87491E+00 8.43137E+01
 -1      2320 8.09422E+00 5.88079E+00 8.62745E+01
 -1      2322 8.08612E+00 5.87491E+00 8.62745E+01
 -1      2323 8.09422E+00 5.88079E+00 8.82353E+01
 -1      2325 8.08612E+00 5.87491E+00 8.82353E+01
 -1      2326 8.09422E+00 5.88079E+00 9.01961E+01
 -1      2328 8.08612E+00 5.87491E+00 9.01961E+01
 -1      2329 8.09422E+00 5.88079E+00 9.21569E+01
 -1      2331 8.08612E+00 5.87491E+00 9.21569E+01
 -1      2332 8.09422E+00 5.88079E+00 9.41176E+01
 -1      2334 8.08612E+00 5.87491E+00 9.41176E+01
 -1      2335 8.09422E+00 5.88079E+00 9.60784E+01
 -1      2337 8.08612E+00 5.87491E+00 9.60784E+01
 -1      2338 8.09422E+00 5.88079E+00 9.80392E+01
 -1      2340 8.08612E+00 5.87491E+00 9.80392E+01
 -1      2341 6.69465E+00 7.43516E+00 1.96078E+00
 -1      2343 6.68796E+00 7.42773E+00 1.96078E+00
 -1      2344 6.69465E+00 7.43516E+00 3.92157E+00
 -1      2346 6.68796E+00 7.42773E+00 3.92157E+00
 -1      2347 6.69465E+00 7.43516E+00 5.88235E+00
 -1      2349 6.68796E+00 7.42773E+00 5.88235E+00
 -1      2350 6.69465E+00 7.43516E+00 7.84314E+00
 -1      2352 6.68796E+00 7.42773E+00 7.84314E+00
 -1      2353 6.69465E+00 7.43516E+00 9.80392E+00
 -1      2355 6.68796E+00 7.42773E+00 9.80392E+00
 -1      2356 6.69465E+00 7.43516E+00 1.17647E+01
 -1      2358 6.68796E+00 7.42773E+00 1.17647E+01
 -1      2359 6.69465E+00 7.43516E+00 1.37255E+01
 -1      2361 6.68796E+00 7.42773E+00 1.37255E+01
 -1      2362 6.69465E+00 7.43516E+00 1.56863E+01
 -1      2364 6.68796E+00 7.42773E+00 1.56863E+01
 -1      2365 6.69465E+00 7.43516E+00 1.76471E+01
 -1      2367 6.68796E+00 7.42773E+00 1.76471E+01
 -1      2368 6.69465E+00 7.43516E+00 1.96078E+01
 -1      2370 6.68796E+00 7.42773E+00 1.96078E+01
 -1      2371 6.69465E+00 7.43516E+00 2.15686E+01
 -1      2373 6.68796E+00 7.42773E+00 2.15686E+01
 -1      2374 6.69465E+00 7.43516E+00 2.35294E+01
 -1      2376 6.68796E+00 7.42773E+00 2.35294E+01
 -1      2377 6.69465E+00 7.43516E+00 2.54902E+01
 -1      2379 6.68796E+00 7.42773E+00 2.54902E+01
 -1      2380 6.69465E+00 7.43516E+00 2.74510E+01
 -1      2382 6.68796E+00 7.42773E+00 2.74510E+01
 -1      2383 6.69465E+00 7.43516E+00 2.94118E+01
 -1      2385 6.68796E+00 7.42773E+00 2.94118E+01
 -1      2386 6.69465E+00 7.43516E+00 3.13725E+01
 -1      2388 6.68796E+00 7.42773E+00 3.13725E+01
 -1      2389 6.69465E+00 7.43516E+00 3.33333E+01
 -1      2391 6.68796E+00 7.42773E+00 3.33333E+01
 -1      2392 6.69465E+00 7.43516E+00 3.52941E+01
 -1      2394 6.68796E+00 7.42773E+00 3.52941E+01
 -1      2395 6.69465E+00 7.43516E+00 3.72549E+01
 -1      2397 6.68796E+00 7.42773E+00 3.72549E+01
 -1      2398 6.69465E+00 7.43516E+00 3.92157E+01
 -1      2400 6.68796E+00 7.42773E+00 3.92157E+01
 -1      2401 6.69465E+00 7.43516E+00 4.11765E+01
 -1      2403 6.68796E+00 7.42773E+00 4.11765E+01
 -1      2404 6.69465E+00 7.43516E+00 4.31373E+01
 -1      2406 6.68796E+00 7.42773E+00 4.31373E+01
 -1      2407 6.69465E+00 7.43516E+00 4.50980E+01
 -1      2409 6.68796E+00 7.42773E+00 4.50980E+01
 -1      2410 6.69465E+00 7.43516E+00 4.70588E+01
 -1      2412 6.68796E+00 7.42773E+00 4.70588E+01
 -1      2413 6.69465E+00 7.43516E+00 4.90196E+01
 -1      2415 6.68796E+00 7.42773E+00 4.90196E+01
 -1      2416 6.69465E+00 7.43516E+00 5.09804E+01
 -1      2418 6.68796E+00 7.42773E+00 5.09804E+01
 -1      2419 6.69465E+00 7.43516E+00 5.29412E+01
 -1      2421 6.68796E+00 7.42773E+00 5.29412E+01
 -1      2422 6.69465E+00 7.43516E+00 5.49020E+01
 -1      2424 6.68796E+00 7.42773E+00 5.49020E+01
 -1      2425 6.69465E+00 7.43516E+00 5.68627E+01
 -1      2427 6.68796E+00 7.42773E+00 5.68627E+01
 -1      2428 6.69465E+00 7.43516E+00 5.88235E+01
 -1      2430 6.68796E+00 7.42773E+00 5.88235E+01
 -1      2431 6.69465E+00 7.43516E+00 6.07843E+01
 -1      2433 6.68796E+00 7.42773E+00 6.07843E+01