<?xml version="1.0"?>
<VTKFile type="UnstructuredGrid" version="0.1" byte_order="LittleEndian">
	<UnstructuredGrid>
		<Piece NumberOfPoints="7812" NumberOfCells="6600">
			<Points>
				<DataArray type="Float64" NumberOfComponents="3" format="ascii">
					 9.50000000E+01	 0.00000000E+00	 0.00000000E+00
					 1.00000000E+02	 0.00000000E+00	 0.00000000E+00
					 6.12323000E-15	 1.00000000E+02	 0.00000000E+00
					 5.81707000E-15	 9.50000000E+01	 0.00000000E+00
					 9.50000000E+01	 0.00000000E+00	 1.00000000E+01
					 1.00000000E+02	 0.00000000E+00	 1.00000000E+01
					 6.12323000E-15	 1.00000000E+02	 1.00000000E+01
					 5.81707000E-15	 9.50000000E+01	 1.00000000E+01
					 9.52500000E+01	 0.00000000E+00	 0.00000000E+00
					 9.55000000E+01	 0.00000000E+00	 0.00000000E+00
					 9.57500000E+01	 0.00000000E+00	 0.00000000E+00
					 9.60000000E+01	 0.00000000E+00	 0.00000000E+00
					 9.62500000E+01	 0.00000000E+00	 0.00000000E+00
					 9.65000000E+01	 0.00000000E+00	 0.00000000E+00
					 9.67500000E+01	 0.00000000E+00	 0.00000000E+00
					 9.70000000E+01	 0.00000000E+00	 0.00000000E+00
					 9.72500000E+01	 0.00000000E+00	 0.00000000E+00
					 9.75000000E+01	 0.00000000E+00	 0.00000000E+00
					 9.77500000E+01	 0.00000000E+00	 0.00000000E+00
					 9.80000000E+01	 0.00000000E+00	 0.00000000E+00
					 9.82500000E+01	 0.00000000E+00	 0.00000000E+00
					 9.85000000E+01	 0.00000000E+00	 0.00000000E+00
					 9.87500000E+01	 0.00000000E+00	 0.00000000E+00
					 9.90000000E+01	 0.00000000E+00	 0.00000000E+00
					 9.92500000E+01	 0.00000000E+00	 0.00000000E+00
					 9.95000000E+01	 0.00000000E+00	 0.00000000E+00
					 9.97500000E+01	 0.00000000E+00	 0.00000000E+00
					 9.98630000E+01	 5.23360000E+00	 0.00000000E+00
					 9.94522000E+01	 1.04528000E+01	 0.00000000E+00
					 9.87688000E+01	 1.56434000E+01	 0.00000000E+00
					 9.78148000E+01	 2.07912000E+01	 0.00000000E+00
					 9.65926000E+01	 2.58819000E+01	 0.00000000E+00
					 9.51057000E+01	 3.09017000E+01	 0.00000000E+00
					 9.33580000E+01	 3.58368000E+01	 0.00000000E+00
					 9.13545000E+01	 4.06737000E+01	 0.00000000E+00
					 8.91007000E+01	 4.53991000E+01	 0.00000000E+00
					 8.66025000E+01	 5.00000000E+01	 0.00000000E+00
					 8.38671000E+01	 5.44639000E+01	 0.00000000E+00
					 8.09017000E+01	 5.87785000E+01	 0.00000000E+00
					 7.77146000E+01	 6.29320000E+01	 0.00000000E+00
					 7.43145000E+01	 6.69131000E+01	 0.00000000E+00
					 7.07107000E+01	 7.07107000E+01	 0.00000000E+00
					 6.69131000E+01	 7.43145000E+01	 0.00000000E+00
					 6.29320000E+01	 7.77146000E+01	 0.00000000E+00
					 5.87785000E+01	 8.09017000E+01	 0.00000000E+00
					 5.44639000E+01	 8.38671000E+01	 0.00000000E+00
					 5.00000000E+01	 8.66025000E+01	 0.00000000E+00
					 4.53991000E+01	 8.91007000E+01	 0.00000000E+00
					 4.06737000E+01	 9.13545000E+01	 0.00000000E+00
					 3.58368000E+01	 9.33580000E+01	 0.00000000E+00
					 3.09017000E+01	 9.51057000E+01	 0.00000000E+00
					 2.58819000E+01	 9.65926000E+01	 0.00000000E+00
					 2.07912000E+01	 9.78148000E+01	 0.00000000E+00
					 1.56434000E+01	 9.87688000E+01	 0.00000000E+00
					 1.04528000E+01	 9.94522000E+01	 0.00000000E+00
					 5.23360000E+00	 9.98630000E+01	 0.00000000E+00
					 6.10793000E-15	 9.97500000E+01	 0.00000000E+00
					 6.09262000E-15	 9.95000000E+01	 0.00000000E+00
					 6.07731000E-15	 9.92500000E+01	 0.00000000E+00
					 6.06200000E-15	 9.90000000E+01	 0.00000000E+00
					 6.04669000E-15	 9.87500000E+01	 0.00000000E+00
					 6.03139000E-15	 9.85000000E+01	 0.00000000E+00
					 6.01608000E-15	 9.82500000E+01	 0.00000000E+00
					 6.00077000E-15	 9.80000000E+01	 0.00000000E+00
					 5.98546000E-15	 9.77500000E+01	 0.00000000E+00
					 5.97015000E-15	 9.75000000E+01	 0.00000000E+00
					 5.95484000E-15	 9.72500000E+01	 0.00000000E+00
					 5.93954000E-15	 9.70000000E+01	 0.00000000E+00
					 5.92423000E-15	 9.67500000E+01	 0.00000000E+00
					 5.90892000E-15	 9.65000000E+01	 0.00000000E+00
					 5.89361000E-15	 9.62500000E+01	 0.00000000E+00
					 5.87830000E-15	 9.60000000E+01	 0.00000000E+00
					 5.86300000E-15	 9.57500000E+01	 0.00000000E+00
					 5.84769000E-15	 9.55000000E+01	 0.00000000E+00
					 5.83238000E-15	 9.52500000E+01	 0.00000000E+00
					 4.97192000E+00	 9.48698000E+01	 0.00000000E+00
					 9.93020000E+00	 9.44796000E+01	 0.00000000E+00
					 1.48613000E+01	 9.38304000E+01	 0.00000000E+00
					 1.97516000E+01	 9.29240000E+01	 0.00000000E+00
					 2.45878000E+01	 9.17630000E+01	 0.00000000E+00
					 2.93566000E+01	 9.03504000E+01	 0.00000000E+00
					 3.40450000E+01	 8.86901000E+01	 0.00000000E+00
					 3.86400000E+01	 8.67868000E+01	 0.00000000E+00
					 4.31291000E+01	 8.46456000E+01	 0.00000000E+00
					 4.75000000E+01	 8.22724000E+01	 0.00000000E+00
					 5.17407000E+01	 7.96737000E+01	 0.00000000E+00
					 5.58396000E+01	 7.68566000E+01	 0.00000000E+00
					 5.97854000E+01	 7.38289000E+01	 0.00000000E+00
					 6.35674000E+01	 7.05988000E+01	 0.00000000E+00
					 6.71751000E+01	 6.71751000E+01	 0.00000000E+00
					 7.05988000E+01	 6.35674000E+01	 0.00000000E+00
					 7.38289000E+01	 5.97854000E+01	 0.00000000E+00
					 7.68566000E+01	 5.58396000E+01	 0.00000000E+00
					 7.96737000E+01	 5.17407000E+01	 0.00000000E+00
					 8.22724000E+01	 4.75000000E+01	 0.00000000E+00
					 8.46456000E+01	 4.31291000E+01	 0.00000000E+00
					 8.67868000E+01	 3.86400000E+01	 0.00000000E+00
					 8.86901000E+01	 3.40450000E+01	 0.00000000E+00
					 9.03504000E+01	 2.93566000E+01	 0.00000000E+00
					 9.17630000E+01	 2.45878000E+01	 0.00000000E+00
					 9.29240000E+01	 1.97516000E+01	 0.00000000E+00
					 9.38304000E+01	 1.48613000E+01	 0.00000000E+00
					 9.44796000E+01	 9.93020000E+00	 0.00000000E+00
					 9.48698000E+01	 4.97192000E+00	 0.00000000E+00
					 9.52500000E+01	 0.00000000E+00	 1.00000000E+01
					 9.55000000E+01	 0.00000000E+00	 1.00000000E+01
					 9.57500000E+01	 0.00000000E+00	 1.00000000E+01
					 9.60000000E+01	 0.00000000E+00	 1.00000000E+01
					 9.62500000E+01	 0.00000000E+00	 1.00000000E+01
					 9.65000000E+01	 0.00000000E+00	 1.00000000E+01
					 9.67500000E+01	 0.00000000E+00	 1.00000000E+01
					 9.70000000E+01	 0.00000000E+00	 1.00000000E+01
					 9.72500000E+01	 0.00000000E+00	 1.00000000E+01
					 9.75000000E+01	 0.00000000E+00	 1.00000000E+01
					 9.77500000E+01	 0.00000000E+00	 1.00000000E+01
					 9.80000000E+01	 0.00000000E+00	 1.00000000E+01
					 9.82500000E+01	 0.00000000E+00	 1.00000000E+01
					 9.85000000E+01	 0.00000000E+00	 1.00000000E+01
					 9.87500000E+01	 0.00000000E+00	 1.00000000E+01
					 9.90000000E+01	 0.00000000E+00	 1.00000000E+01
					 9.92500000E+01	 0.00000000E+00	 1.00000000E+01
					 9.95000000E+01	 0.00000000E+00	 1.00000000E+01
					 9.97500000E+01	 0.00000000E+00	 1.00000000E+01
					 9.98630000E+01	 5.23360000E+00	 1.00000000E+01
					 9.94522000E+01	 1.04528000E+01	 1.00000000E+01
					 9.87688000E+01	 1.56434000E+01	 1.00000000E+01
					 9.78148000E+01	 2.07912000E+01	 1.00000000E+01
					 9.65926000E+01	 2.58819000E+01	 1.00000000E+01
					 9.51057000E+01	 3.09017000E+01	 1.00000000E+01
					 9.33580000E+01	 3.58368000E+01	 1.00000000E+01
					 9.13545000E+01	 4.06737000E+01	 1.00000000E+01
					 8.91007000E+01	 4.53991000E+01	 1.00000000E+01
					 8.66025000E+01	 5.00000000E+01	 1.00000000E+01
					 8.38671000E+01	 5.44639000E+01	 1.00000000E+01
					 8.09017000E+01	 5.87785000E+01	 1.00000000E+01
					 7.77146000E+01	 6.29320000E+01	 1.00000000E+01
					 7.43145000E+01	 6.69131000E+01	 1.00000000E+01
					 7.07107000E+01	 7.07107000E+01	 1.00000000E+01
					 6.69131000E+01	 7.43145000E+01	 1.00000000E+01
					 6.29320000E+01	 7.77146000E+01	 1.00000000E+01
					 5.87785000E+01	 8.09017000E+01	 1.00000000E+01
					 5.44639000E+01	 8.38671000E+01	 1.00000000E+01
					 5.00000000E+01	 8.66025000E+01	 1.00000000E+01
					 4.53991000E+01	 8.91007000E+01	 1.00000000E+01
					 4.06737000E+01	 9.13545000E+01	 1.00000000E+01
					 3.58368000E+01	 9.33580000E+01	 1.00000000E+01
					 3.09017000E+01	 9.51057000E+01	 1.00000000E+01
					 2.58819000E+01	 9.65926000E+01	 1.00000000E+01
					 2.07912000E+01	 9.78148000E+01	 1.00000000E+01
					 1.56434000E+01	 9.87688000E+01	 1.00000000E+01
					 1.04528000E+01	 9.94522000E+01	 1.00000000E+01
					 5.23360000E+00	 9.98630000E+01	 1.00000000E+01
					 6.10793000E-15	 9.97500000E+01	 1.00000000E+01
					 6.09262000E-15	 9.95000000E+01	 1.00000000E+01
					 6.07731000E-15	 9.92500000E+01	 1.00000000E+01
					 6.06200000E-15	 9.90000000E+01	 1.00000000E+01
					 6.04669000E-15	 9.87500000E+01	 1.00000000E+01
					 6.03139000E-15	 9.85000000E+01	 1.00000000E+01
					 6.01608000E-15	 9.82500000E+01	 1.00000000E+01
					 6.00077000E-15	 9.80000000E+01	 1.00000000E+01
					 5.98546000E-15	 9.77500000E+01	 1.00000000E+01
					 5.97015000E-15	 9.75000000E+01	 1.00000000E+01
					 5.95484000E-15	 9.72500000E+01	 1.00000000E+01
					 5.93954000E-15	 9.70000000E+01	 1.00000000E+01
					 5.92423000E-15	 9.67500000E+01	 1.00000000E+01
					 5.90892000E-15	 9.65000000E+01	 1.00000000E+01
					 5.89361000E-15	 9.62500000E+01	 1.00000000E+01
					 5.87830000E-15	 9.60000000E+01	 1.00000000E+01
					 5.86300000E-15	 9.57500000E+01	 1.00000000E+01
					 5.84769000E-15	 9.55000000E+01	 1.00000000E+01
					 5.83238000E-15	 9.52500000E+01	 1.00000000E+01
					 4.97192000E+00	 9.48698000E+01	 1.00000000E+01
					 9.93020000E+00	 9.44796000E+01	 1.00000000E+01
					 1.48613000E+01	 9.38304000E+01	 1.00000000E+01
					 1.97516000E+01	 9.29240000E+01	 1.00000000E+01
					 2.45878000E+01	 9.17630000E+01	 1.00000000E+01
					 2.93566000E+01	 9.03504000E+01	 1.00000000E+01
					 3.40450000E+01	 8.86901000E+01	 1.00000000E+01
					 3.86400000E+01	 8.67868000E+01	 1.00000000E+01
					 4.31291000E+01	 8.46456000E+01	 1.00000000E+01
					 4.75000000E+01	 8.22724000E+01	 1.00000000E+01
					 5.17407000E+01	 7.96737000E+01	 1.00000000E+01
					 5.58396000E+01	 7.68566000E+01	 1.00000000E+01
[...]
			<PointData>
				<DataArray type="Float32" Name="U" NumberOfComponents="3" ComponentName0="D1" ComponentName1="D2" ComponentName2="D3" format="ascii">
					 8.96153000E-03	 0.00000000E+00	-4.99391000E-03
					 8.81429000E-03	 0.00000000E+00	-4.99397000E-03
					 0.00000000E+00	 8.81429000E-03	-4.99397000E-03
					 0.00000000E+00	 8.96153000E-03	-4.99391000E-03
					 8.96153000E-03	 0.00000000E+00	-5.25844000E-03
					 8.81429000E-03	 0.00000000E+00	-5.25838000E-03
					 0.00000000E+00	 8.81429000E-03	-5.25838000E-03
					 0.00000000E+00	 8.96153000E-03	-5.25844000E-03
					 8.95342000E-03	 0.00000000E+00	-4.99392000E-03
					 8.94539000E-03	 0.00000000E+00	-4.99393000E-03
					 8.93744000E-03	 0.00000000E+00	-4.99393000E-03
					 8.92958000E-03	 0.00000000E+00	-4.99393000E-03
					 8.92179000E-03	 0.00000000E+00	-4.99394000E-03
					 8.91409000E-03	 0.00000000E+00	-4.99394000E-03
					 8.90646000E-03	 0.00000000E+00	-4.99394000E-03
					 8.89891000E-03	 0.00000000E+00	-4.99394000E-03
					 8.89144000E-03	 0.00000000E+00	-4.99394000E-03
					 8.88405000E-03	 0.00000000E+00	-4.99394000E-03
					 8.87674000E-03	 0.00000000E+00	-4.99395000E-03
					 8.86950000E-03	 0.00000000E+00	-4.99395000E-03
					 8.86234000E-03	 0.00000000E+00	-4.99395000E-03
					 8.85526000E-03	 0.00000000E+00	-4.99395000E-03
					 8.84824000E-03	 0.00000000E+00	-4.99395000E-03
					 8.84131000E-03	 0.00000000E+00	-4.99395000E-03
					 8.83444000E-03	 0.00000000E+00	-4.99396000E-03
					 8.82765000E-03	 0.00000000E+00	-4.99396000E-03
					 8.82094000E-03	 0.00000000E+00	-4.99396000E-03
					 8.80221000E-03	 4.61304000E-04	-4.99397000E-03
					 8.76600000E-03	 9.21344000E-04	-4.99397000E-03
					 8.70577000E-03	 1.37886000E-03	-4.99397000E-03
					 8.62168000E-03	 1.83259000E-03	-4.99397000E-03
					 8.51395000E-03	 2.28131000E-03	-4.99397000E-03
					 8.38289000E-03	 2.72377000E-03	-4.99397000E-03
					 8.22885000E-03	 3.15876000E-03	-4.99397000E-03
					 8.05226000E-03	 3.58510000E-03	-4.99397000E-03
					 7.85359000E-03	 4.00160000E-03	-4.99397000E-03
					 7.63340000E-03	 4.40715000E-03	-4.99397000E-03
					 7.39229000E-03	 4.80061000E-03	-4.99397000E-03
					 7.13091000E-03	 5.18091000E-03	-4.99397000E-03
					 6.84999000E-03	 5.54701000E-03	-4.99397000E-03
					 6.55029000E-03	 5.89791000E-03	-4.99397000E-03
					 6.23264000E-03	 6.23264000E-03	-4.99397000E-03
					 5.89791000E-03	 6.55029000E-03	-4.99397000E-03
					 5.54701000E-03	 6.84999000E-03	-4.99397000E-03
					 5.18091000E-03	 7.13091000E-03	-4.99397000E-03
					 4.80061000E-03	 7.39229000E-03	-4.99397000E-03
					 4.40715000E-03	 7.63340000E-03	-4.99397000E-03
					 4.00160000E-03	 7.85359000E-03	-4.99397000E-03
					 3.58510000E-03	 8.05226000E-03	-4.99397000E-03
					 3.15876000E-03	 8.22885000E-03	-4.99397000E-03
					 2.72377000E-03	 8.38289000E-03	-4.99397000E-03
					 2.28131000E-03	 8.51395000E-03	-4.99397000E-03
					 1.83259000E-03	 8.62168000E-03	-4.99397000E-03
					 1.37886000E-03	 8.70577000E-03	-4.99397000E-03
					 9.21344000E-04	 8.76600000E-03	-4.99397000E-03
					 4.61304000E-04	 8.80221000E-03	-4.99397000E-03
					 0.00000000E+00	 8.82094000E-03	-4.99396000E-03
					 0.00000000E+00	 8.82765000E-03	-4.99396000E-03
					 0.00000000E+00	 8.83444000E-03	-4.99396000E-03
					 0.00000000E+00	 8.84131000E-03	-4.99395000E-03
					 0.00000000E+00	 8.84824000E-03	-4.99395000E-03
					 0.00000000E+00	 8.85526000E-03	-4.99395000E-03
					 0.00000000E+00	 8.86234000E-03	-4.99395000E-03
					 0.00000000E+00	 8.86950000E-03	-4.99395000E-03
					 0.00000000E+00	 8.87674000E-03	-4.99395000E-03
					 0.00000000E+00	 8.88405000E-03	-4.99394000E-03
					 0.00000000E+00	 8.89144000E-03	-4.99394000E-03
					 0.00000000E+00	 8.89891000E-03	-4.99394000E-03
					 0.00000000E+00	 8.90646000E-03	-4.99394000E-03
					 0.00000000E+00	 8.91409000E-03	-4.99394000E-03
					 0.00000000E+00	 8.92179000E-03	-4.99394000E-03
					 0.00000000E+00	 8.92958000E-03	-4.99393000E-03
					 0.00000000E+00	 8.93744000E-03	-4.99393000E-03
					 0.00000000E+00	 8.94539000E-03	-4.99393000E-03
					 0.00000000E+00	 8.95342000E-03	-4.99392000E-03
					 4.69010000E-04	 8.94925000E-03	-4.99391000E-03
					 9.36735000E-04	 8.91244000E-03	-4.99391000E-03
					 1.40189000E-03	 8.85120000E-03	-4.99391000E-03
					 1.86321000E-03	 8.76570000E-03	-4.99391000E-03
					 2.31942000E-03	 8.65618000E-03	-4.99391000E-03
					 2.76927000E-03	 8.52292000E-03	-4.99391000E-03
					 3.21153000E-03	 8.36631000E-03	-4.99391000E-03
					 3.64498000E-03	 8.18677000E-03	-4.99391000E-03
					 4.06845000E-03	 7.98478000E-03	-4.99391000E-03
					 4.48077000E-03	 7.76092000E-03	-4.99391000E-03
					 4.88080000E-03	 7.51577000E-03	-4.99391000E-03
					 5.26746000E-03	 7.25003000E-03	-4.99391000E-03
					 5.63968000E-03	 6.96442000E-03	-4.99391000E-03
					 5.99644000E-03	 6.65972000E-03	-4.99391000E-03
					 6.33676000E-03	 6.33676000E-03	-4.99391000E-03
					 6.65972000E-03	 5.99644000E-03	-4.99391000E-03
					 6.96442000E-03	 5.63968000E-03	-4.99391000E-03
					 7.25003000E-03	 5.26746000E-03	-4.99391000E-03
					 7.51577000E-03	 4.88080000E-03	-4.99391000E-03
					 7.76092000E-03	 4.48077000E-03	-4.99391000E-03
					 7.98478000E-03	 4.06845000E-03	-4.99391000E-03
					 8.18677000E-03	 3.64498000E-03	-4.99391000E-03
					 8.36631000E-03	 3.21153000E-03	-4.99391000E-03
					 8.52292000E-03	 2.76927000E-03	-4.99391000E-03
					 8.65618000E-03	 2.31942000E-03	-4.99391000E-03
					 8.76570000E-03	 1.86321000E-03	-4.99391000E-03
					 8.85120000E-03	 1.40189000E-03	-4.99391000E-03
					 8.91244000E-03	 9.36735000E-04	-4.99391000E-03
					 8.94925000E-03	 4.69010000E-04	-4.99391000E-03
					 8.95342000E-03	 0.00000000E+00	-5.25843000E-03
					 8.94539000E-03	 0.00000000E+00	-5.25843000E-03
					 8.93744000E-03	 0.00000000E+00	-5.25843000E-03
					 8.92958000E-03	 0.00000000E+00	-5.25842000E-03
					 8.92179000E-03	 0.00000000E+00	-5.25842000E-03
					 8.91409000E-03	 0.00000000E+00	-5.25842000E-03
					 8.90646000E-03	 0.00000000E+00	-5.25842000E-03
					 8.89891000E-03	 0.00000000E+00	-5.25842000E-03
					 8.89144000E-03	 0.00000000E+00	-5.25841000E-03
					 8.88405000E-03	 0.00000000E+00	-5.25841000E-03
					 8.87674000E-03	 0.00000000E+00	-5.25841000E-03
					 8.86950000E-03	 0.00000000E+00	-5.25841000E-03
					 8.86234000E-03	 0.00000000E+00	-5.25841000E-03
					 8.85526000E-03	 0.00000000E+00	-5.25841000E-03
					 8.84824000E-03	 0.00000000E+00	-5.25841000E-03
					 8.84131000E-03	 0.00000000E+00	-5.25840000E-03
					 8.83444000E-03	 0.00000000E+00	-5.25840000E-03
					 8.82765000E-03	 0.00000000E+00	-5.25840000E-03
					 8.82094000E-03	 0.00000000E+00	-5.25839000E-03
					 8.80221000E-03	 4.61304000E-04	-5.25838000E-03
					 8.76600000E-03	 9.21344000E-04	-5.25838000E-03
					 8.70577000E-03	 1.37886000E-03	-5.25838000E-03
					 8.62168000E-03	 1.83259000E-03	-5.25838000E-03
					 8.51395000E-03	 2.28131000E-03	-5.25838000E-03
					 8.38289000E-03	 2.72377000E-03	-5.25838000E-03
					 8.22885000E-03	 3.15876000E-03	-5.25838000E-03
					 8.05226000E-03	 3.58510000E-03	-5.25838000E-03
					 7.85359000E-03	 4.00160000E-03	-5.25838000E-03
					 7.63340000E-03	 4.40715000E-03	-5.25838000E-03
					 7.39229000E-03	 4.80061000E-03	-5.25838000E-03
					 7.13091000E-03	 5.18091000E-03	-5.25838000E-03
					 6.84999000E-03	 5.54701000E-03	-5.25838000E-03
					 6.55029000E-03	 5.89791000E-03	-5.25838000E-03
					 6.23264000E-03	 6.23264000E-03	-5.25838000E-03
					 5.89791000E-03	 6.55029000E-03	-5.25838000E-03
					 5.54701000E-03	 6.84999000E-03	-5.25838000E-03
					 5.18091000E-03	 7.13091000E-03	-5.25838000E-03
					 4.80061000E-03	 7.39229000E-03	-5.25838000E-03
					 4.40715000E-03	 7.63340000E-03	-5.25838000E-03
					 4.00160000E-03	 7.85359000E-03	-5.25838000E-03
					 3.58510000E-03	 8.05226000E-03	-5.25838000E-03
					 3.15876000E-03	 8.22885000E-03	-5.25838000E-03
					 2.72377000E-03	 8.38289000E-03	-5.25838000E-03
					 2.28131000E-03	 8.51395000E-03	-5.25838000E-03
					 1.83259000E-03	 8.62168000E-03	-5.25838000E-03
					 1.37886000E-03	 8.70577000E-03	-5.25838000E-03
					 9.21344000E-04	 8.76600000E-03	-5.25838000E-03
					 4.61304000E-04	 8.80221000E-03	-5.25838000E-03
					 0.00000000E+00	 8.82094000E-03	-5.25839000E-03
					 0.00000000E+00	 8.82765000E-03	-5.25840000E-03
					 0.00000000E+00	 8.83444000E-03	-5.25840000E-03
					 0.00000000E+00	 8.84131000E-03	-5.25840000E-03
					 0.00000000E+00	 8.84824000E-03	-5.25841000E-03
					 0.00000000E+00	 8.85526000E-03	-5.25841000E-03
					 0.00000000E+00	 8.86234000E-03	-5.25841000E-03
					 0.00000000E+00	 8.86950000E-03	-5.25841000E-03
					 0.00000000E+00	 8.87674000E-03	-5.25841000E-03
					 0.00000000E+00	 8.88405000E-03	-5.25841000E-03
					 0.00000000E+00	 8.89144000E-03	-5.25841000E-03
					 0.00000000E+00	 8.89891000E-03	-5.25842000E-03
					 0.00000000E+00	 8.90646000E-03	-5.25842000E-03
					 0.00000000E+00	 8.91409000E-03	-5.25842000E-03
					 0.00000000E+00	 8.92179000E-03	-5.25842000E-03
					 0.00000000E+00	 8.92958000E-03	-5.25842000E-03
					 0.00000000E+00	 8.93744000E-03	-5.25843000E-03
					 0.00000000E+00	 8.94539000E-03	-5.25843000E-03
					 0.00000000E+00	 8.95342000E-03	-5.25843000E-03
					 4.69010000E-04	 8.94925000E-03	-5.25844000E-03
					 9.36735000E-04	 8.91244000E-03	-5.25844000E-03
					 1.40189000E-03	 8.85120000E-03	-5.25844000E-03
					 1.86321000E-03	 8.76570000E-03	-5.25844000E-03
					 2.31942000E-03	 8.65618000E-03	-5.25844000E-03
					 2.76927000E-03	 8.52292000E-03	-5.25844000E-03
					 3.21153000E-03	 8.36631000E-03	-5.25844000E-03
					 3.64498000E-03	 8.18677000E-03	-5.25844000E-03
					 4.06845000E-03	 7.98478000E-03	-5.25844000E-03
					 4.48077000E-03	 7.76092000E-03	-5.25844000E-03
					 4.88080000E-03	 7.51577000E-03	-5.25844000E-03
					 5.26746000E-03	 7.25003000E-03	-5.25844000E-03
					 5.63968000E-03	 6.96442000E-03	-5.25844000E-03
					 5.99644000E-03	 6.65972000E-03	-5.25844000E-03
					 6.33676000E-03	 6.33676000E-03	-5.25844000E-03
					 6.65972000E-03	 5.99644000E-03	-5.25844000E-03
					 6.96442000E-03	 5.63968000E-03	-5.25844000E-03
					 7.25003000E-03	 5.26746000E-03	-5.25844000E-03
					 7.51577000E-03	 4.88080000E-03	-5.25844000E-03
					 7.76092000E-03	 4.48077000E-03	-5.25844000E-03
					 7.98478000E-03	 4.06845000E-03	-5.25844000E-03
					 8.18677000E-03	 3.64498000E-03	-5.25844000E-03
					 8.36631000E-03	 3.21153000E-03	-5.25844000E-03
					 8.52292000E-03	 2.76927000E-03	-5.25844000E-03
					 8.65618000E-03	 2.31942000E-03	-5.25844000E-03
					 8.76570000E-03	 1.86321000E-03	-5.25844000E-03
					 8.85120000E-03	 1.40189000E-03	-5.25844000E-03
					 8.91244000E-03	 9.36735000E-04	-5.25844000E-03
					 8.94925000E-03	 4.69010000E-04	-5.25844000E-03
					 8.96155000E-03	 0.00000000E+00	-5.01797000E-03
					 8.96155000E-03	 0.00000000E+00	-5.04202000E-03
					 8.96156000E-03	 0.00000000E+00	-5.06606000E-03
					 8.96156000E-03	 0.00000000E+00	-5.09011000E-03
					 8.96156000E-03	 0.00000000E+00	-5.11416000E-03
					 8.96156000E-03	 0.00000000E+00	-5.13820000E-03
					 8.96156000E-03	 0.00000000E+00	-5.16225000E-03
					 8.96156000E-03	 0.00000000E+00	-5.18629000E-03
					 8.96155000E-03	 0.00000000E+00	-5.21034000E-03
					 8.96155000E-03	 0.00000000E+00	-5.23439000E-03
					 8.81430000E-03	 0.00000000E+00	-5.01800000E-03
					 8.81431000E-03	 0.00000000E+00	-5.04204000E-03
					 8.81431000E-03	 0.00000000E+00	-5.06608000E-03
					 8.81431000E-03	 0.00000000E+00	-5.09012000E-03
					 8.81432000E-03	 0.00000000E+00	-5.11416000E-03
					 8.81432000E-03	 0.00000000E+00	-5.13820000E-03
					 8.81431000E-03	 0.00000000E+00	-5.16224000E-03
					 8.81431000E-03	 0.00000000E+00	-5.18628000E-03
					 8.81431000E-03	 0.00000000E+00	-5.21031000E-03
					 8.81430000E-03	 0.00000000E+00	-5.23435000E-03
					 0.00000000E+00	 8.81430000E-03	-5.01800000E-03
					 0.00000000E+00	 8.81431000E-03	-5.04204000E-03
					 0.00000000E+00	 8.81431000E-03	-5.06608000E-03
					 0.00000000E+00	 8.81431000E-03	-5.09012000E-03
					 0.00000000E+00	 8.81432000E-03	-5.11416000E-03
					 0.00000000E+00	 8.81432000E-03	-5.13820000E-03
					 0.00000000E+00	 8.81431000E-03	-5.16224000E-03
					 0.00000000E+00	 8.81431000E-03	-5.18628000E-03
					 0.00000000E+00	 8.81431000E-03	-5.21031000E-03
					 0.00000000E+00	 8.81430000E-03	-5.23435000E-03
					 0.00000000E+00	 8.96155000E-03	-5.01797000E-03
					 0.00000000E+00	 8.96155000E-03	-5.04202000E-03
					 0.00000000E+00	 8.96156000E-03	-5.06606000E-03
					 0.00000000E+00	 8.96156000E-03	-5.09011000E-03
					 0.00000000E+00	 8.96156000E-03	-5.11416000E-03
					 0.00000000E+00	 8.96156000E-03	-5.13820000E-03
					 0.00000000E+00	 8.96156000E-03	-5.16225000E-03
					 0.00000000E+00	 8.96156000E-03	-5.18629000E-03
					 0.00000000E+00	 8.96155000E-03	-5.21034000E-03
					 0.00000000E+00	 8.96155000E-03	-5.23439000E-03
					 8.94115000E-03	 4.68586000E-04	-4.99392000E-03
					 8.90437000E-03	 9.35887000E-04	-4.99392000E-03
					 8.84319000E-03	 1.40062000E-03	-4.99392000E-03
					 8.75777000E-03	 1.86152000E-03	-4.99392000E-03
					 8.64834000E-03	 2.31732000E-03	-4.99392000E-03
					 8.51521000E-03	 2.76676000E-03	-4.99392000E-03
					 8.35874000E-03	 3.20862000E-03	-4.99392000E-03
					 8.17936000E-03	 3.64168000E-03	-4.99392000E-03
					 7.97756000E-03	 4.06477000E-03	-4.99392000E-03
					 7.75389000E-03	 4.47671000E-03	-4.99392000E-03
					 7.50897000E-03	 4.87638000E-03	-4.99392000E-03
					 7.24347000E-03	 5.26269000E-03	-4.99392000E-03
					 6.95811000E-03	 5.63457000E-03	-4.99392000E-03
					 6.65369000E-03	 5.99101000E-03	-4.99392000E-03
					 6.33102000E-03	 6.33102000E-03	-4.99392000E-03
					 5.99101000E-03	 6.65369000E-03	-4.99392000E-03
					 5.63457000E-03	 6.95811000E-03	-4.99392000E-03
					 5.26269000E-03	 7.24347000E-03	-4.99392000E-03
					 4.87638000E-03	 7.50897000E-03	-4.99392000E-03
					 4.47671000E-03	 7.75389000E-03	-4.99392000E-03
					 4.06477000E-03	 7.97756000E-03	-4.99392000E-03
					 3.64168000E-03	 8.17936000E-03	-4.99392000E-03
					 3.20862000E-03	 8.35874000E-03	-4.99392000E-03
					 2.76676000E-03	 8.51521000E-03	-4.99392000E-03
					 2.31732000E-03	 8.64834000E-03	-4.99392000E-03
					 1.86152000E-03	 8.75777000E-03	-4.99392000E-03
					 1.40062000E-03	 8.84319000E-03	-4.99392000E-03
					 9.35887000E-04	 8.90437000E-03	-4.99392000E-03
					 4.68586000E-04	 8.94115000E-03	-4.99392000E-03
					 8.93313000E-03	 4.68166000E-04	-4.99393000E-03
					 8.89639000E-03	 9.35048000E-04	-4.99393000E-03
					 8.83526000E-03	 1.39937000E-03	-4.99393000E-03
					 8.74991000E-03	 1.85985000E-03	-4.99393000E-03
					 8.64058000E-03	 2.31524000E-03	-4.99393000E-03
					 8.50757000E-03	 2.76428000E-03	-4.99393000E-03
					 8.35124000E-03	 3.20574000E-03	-4.99393000E-03
					 8.17202000E-03	 3.63842000E-03	-4.99393000E-03
					 7.97040000E-03	 4.06112000E-03	-4.99393000E-03
					 7.74694000E-03	 4.47270000E-03	-4.99393000E-03
					 7.50224000E-03	 4.87201000E-03	-4.99393000E-03
					 7.23697000E-03	 5.25797000E-03	-4.99393000E-03
					 6.95187000E-03	 5.62952000E-03	-4.99393000E-03
					 6.64772000E-03	 5.98563000E-03	-4.99393000E-03
					 6.32535000E-03	 6.32535000E-03	-4.99393000E-03
					 5.98563000E-03	 6.64772000E-03	-4.99393000E-03
					 5.62952000E-03	 6.95187000E-03	-4.99393000E-03
					 5.25797000E-03	 7.23697000E-03	-4.99393000E-03
					 4.87201000E-03	 7.50224000E-03	-4.99393000E-03
					 4.47270000E-03	 7.74694000E-03	-4.99393000E-03
					 4.06112000E-03	 7.97040000E-03	-4.99393000E-03
					 3.63842000E-03	 8.17202000E-03	-4.99393000E-03
					 3.20574000E-03	 8.35124000E-03	-4.99393000E-03
					 2.76428000E-03	 8.50757000E-03	-4.99393000E-03
					 2.31524000E-03	 8.64058000E-03	-4.99393000E-03
					 1.85985000E-03	 8.74991000E-03	-4.99393000E-03
					 1.39937000E-03	 8.83526000E-03	-4.99393000E-03
					 9.35048000E-04	 8.89639000E-03	-4.99393000E-03
					 4.68166000E-04	 8.93313000E-03	-4.99393000E-03
					 8.92519000E-03	 4.67750000E-04	-4.99393000E-03
					 8.88848000E-03	 9.34217000E-04	-4.99393000E-03
					 8.82741000E-03	 1.39812000E-03	-4.99393000E-03
					 8.74214000E-03	 1.85820000E-03	-4.99393000E-03
					 8.63291000E-03	 2.31318000E-03	-4.99393000E-03
					 8.50001000E-03	 2.76182000E-03	-4.99393000E-03
					 8.34382000E-03	 3.20289000E-03	-4.99393000E-03
					 8.16476000E-03	 3.63519000E-03	-4.99393000E-03
					 7.96332000E-03	 4.05751000E-03	-4.99393000E-03
					 7.74005000E-03	 4.46872000E-03	-4.99393000E-03
					 7.49557000E-03	 4.86768000E-03	-4.99393000E-03
					 7.23054000E-03	 5.25330000E-03	-4.99393000E-03
					 6.94570000E-03	 5.62452000E-03	-4.99393000E-03
					 6.64181000E-03	 5.98032000E-03	-4.99393000E-03
					 6.31973000E-03	 6.31973000E-03	-4.99393000E-03
					 5.98032000E-03	 6.64181000E-03	-4.99393000E-03
					 5.62452000E-03	 6.94570000E-03	-4.99393000E-03
					 5.25330000E-03	 7.23054000E-03	-4.99393000E-03
					 4.86768000E-03	 7.49557000E-03	-4.99393000E-03
					 4.46872000E-03	 7.74005000E-03	-4.99393000E-03
					 4.05751000E-03	 7.96332000E-03	-4.99393000E-03
					 3.63519000E-03	 8.16476000E-03	-4.99393000E-03
					 3.20289000E-03	 8.34382000E-03	-4.99393000E-03
					 2.76182000E-03	 8.50001000E-03	-4.99393000E-03
					 2.31318000E-03	 8.63291000E-03	-4.99393000E-03
					 1.85820000E-03	 8.74214000E-03	-4.99393000E-03
					 1.39812000E-03	 8.82741000E-03	-4.99393000E-03
					 9.34217000E-04	 8.88848000E-03	-4.99393000E-03
					 4.67750000E-04	 8.92519000E-03	-4.99393000E-03
					 8.91734000E-03	 4.67338000E-04	-4.99393000E-03
					 8.88066000E-03	 9.33395000E-04	-4.99393000E-03
					 8.81964000E-03	 1.39689000E-03	-4.99393000E-03
					 8.73444000E-03	 1.85656000E-03	-4.99393000E-03
					 8.62531000E-03	 2.31114000E-03	-4.99393000E-03
					 8.49253000E-03	 2.75939000E-03	-4.99393000E-03
					 8.33648000E-03	 3.20007000E-03	-4.99393000E-03
					 8.15757000E-03	 3.63199000E-03	-4.99393000E-03
					 7.95631000E-03	 4.05394000E-03	-4.99393000E-03
					 7.73324000E-03	 4.46479000E-03	-4.99393000E-03
					 7.48897000E-03	 4.86340000E-03	-4.99393000E-03
					 7.22418000E-03	 5.24867000E-03	-4.99393000E-03
					 6.93958000E-03	 5.61956000E-03	-4.99393000E-03
					 6.63597000E-03	 5.97505000E-03	-4.99393000E-03
					 6.31416000E-03	 6.31416000E-03	-4.99393000E-03
					 5.97505000E-03	 6.63597000E-03	-4.99393000E-03
					 5.61957000E-03	 6.93958000E-03	-4.99393000E-03
					 5.24867000E-03	 7.22418000E-03	-4.99393000E-03
					 4.86340000E-03	 7.48897000E-03	-4.99393000E-03
					 4.46479000E-03	 7.73324000E-03	-4.99393000E-03
					 4.05394000E-03	 7.95631000E-03	-4.99393000E-03
					 3.63199000E-03	 8.15757000E-03	-4.99393000E-03
					 3.20007000E-03	 8.33648000E-03	-4.99393000E-03
					 2.75939000E-03	 8.49253000E-03	-4.99393000E-03
					 2.31114000E-03	 8.62531000E-03	-4.99393000E-03
					 1.85656000E-03	 8.73444000E-03	-4.99393000E-03
					 1.39689000E-03	 8.81964000E-03	-4.99393000E-03
					 9.33395000E-04	 8.88066000E-03	-4.99393000E-03
					 4.67338000E-04	 8.91734000E-03	-4.99393000E-03
					 8.90956000E-03	 4.66930000E-04	-4.99394000E-03
					 8.87292000E-03	 9.32581000E-04	-4.99394000E-03
					 8.81195000E-03	 1.39568000E-03	-4.99394000E-03
					 8.72683000E-03	 1.85494000E-03	-4.99394000E-03
					 8.61779000E-03	 2.30913000E-03	-4.99394000E-03
					 8.48513000E-03	 2.75699000E-03	-4.99394000E-03
					 8.32921000E-03	 3.19728000E-03	-4.99394000E-03
					 8.15046000E-03	 3.62882000E-03	-4.99394000E-03
					 7.94937000E-03	 4.05041000E-03	-4.99394000E-03
					 7.72650000E-03	 4.46090000E-03	-4.99394000E-03
					 7.48244000E-03	 4.85916000E-03	-4.99394000E-03
					 7.21788000E-03	 5.24410000E-03	-4.99394000E-03
					 6.93353000E-03	 5.61467000E-03	-4.99394000E-03
					 6.63018000E-03	 5.96984000E-03	-4.99394000E-03
					 6.30866000E-03	 6.30866000E-03	-4.99394000E-03
					 5.96984000E-03	 6.63018000E-03	-4.99394000E-03
					 5.61467000E-03	 6.93353000E-03	-4.99394000E-03
					 5.24410000E-03	 7.21788000E-03	-4.99394000E-03