    1C
    1U disc.inp                                                         
    1UUSER                                                              
    1UDATE              25.february.2021                                
    1UTIME              12:40:39                                        
    1UHOST                                                              
    1UPGM               CalculiX                                        
    1UVERSION           Version 2.17                             
    1UCOMPILETIME       Thu Jul 23 21:29:36 CEST 2020                    
    1UDIR                                                               
    1UDBN                                                               
    1UMAT    1STEEL                                                     
    2C                          7812                                     1
 -1         1 9.50000E+01 0.00000E+00 0.00000E+00
 -1         2 1.00000E+02 0.00000E+00 0.00000E+00
 -1         3 6.12323E-15 1.00000E+02 0.00000E+00
 -1         4 5.81707E-15 9.50000E+01 0.00000E+00
 -1         5 9.50000E+01 0.00000E+00 1.00000E+01
 -1         6 1.00000E+02 0.00000E+00 1.00000E+01
 -1         7 6.12323E-15 1.00000E+02 1.00000E+01
 -1         8 5.81707E-15 9.50000E+01 1.00000E+01
 -1         9 9.52500E+01 0.00000E+00 0.00000E+00
 -1        10 9.55000E+01 0.00000E+00 0.00000E+00
 -1        11 9.57500E+01 0.00000E+00 0.00000E+00
 -1        12 9.60000E+01 0.00000E+00 0.00000E+00
 -1        13 9.62500E+01 0.00000E+00 0.00000E+00
 -1        14 9.65000E+01 0.00000E+00 0.00000E+00
 -1        15 9.67500E+01 0.00000E+00 0.00000E+00
 -1        16 9.70000E+01 0.00000E+00 0.00000E+00
 -1        17 9.72500E+01 0.00000E+00 0.00000E+00
 -1        18 9.75000E+01 0.00000E+00 0.00000E+00
 -1        19 9.77500E+01 0.00000E+00 0.00000E+00
 -1        20 9.80000E+01 0.00000E+00 0.00000E+00
 -1        21 9.82500E+01 0.00000E+00 0.00000E+00
 -1        22 9.85000E+01 0.00000E+00 0.00000E+00
 -1        23 9.87500E+01 0.00000E+00 0.00000E+00
 -1        24 9.90000E+01 0.00000E+00 0.00000E+00
 -1        25 9.92500E+01 0.00000E+00 0.00000E+00
 -1        26 9.95000E+01 0.00000E+00 0.00000E+00
 -1        27 9.97500E+01 0.00000E+00 0.00000E+00
 -1        28 9.98630E+01 5.23360E+00 0.00000E+00
 -1        29 9.94522E+01 1.04528E+01 0.00000E+00
 -1        30 9.87688E+01 1.56434E+01 0.00000E+00
 -1        31 9.78148E+01 2.07912E+01 0.00000E+00
 -1        32 9.65926E+01 2.58819E+01 0.00000E+00
 -1        33 9.51057E+01 3.09017E+01 0.00000E+00
 -1        34 9.33580E+01 3.58368E+01 0.00000E+00
 -1        35 9.13545E+01 4.06737E+01 0.00000E+00
 -1        36 8.91007E+01 4.53991E+01 0.00000E+00
 -1        37 8.66025E+01 5.00000E+01 0.00000E+00
 -1        38 8.38671E+01 5.44639E+01 0.00000E+00
 -1        39 8.09017E+01 5.87785E+01 0.00000E+00
 -1        40 7.77146E+01 6.29320E+01 0.00000E+00
 -1        41 7.43145E+01 6.69131E+01 0.00000E+00
 -1        42 7.07107E+01 7.07107E+01 0.00000E+00
 -1        43 6.69131E+01 7.43145E+01 0.00000E+00
 -1        44 6.29320E+01 7.77146E+01 0.00000E+00
 -1        45 5.87785E+01 8.09017E+01 0.00000E+00
 -1        46 5.44639E+01 8.38671E+01 0.00000E+00
 -1        47 5.00000E+01 8.66025E+01 0.00000E+00
 -1        48 4.53991E+01 8.91007E+01 0.00000E+00
 -1        49 4.06737E+01 9.13545E+01 0.00000E+00
 -1        50 3.58368E+01 9.33580E+01 0.00000E+00
 -1        51 3.09017E+01 9.51057E+01 0.00000E+00
 -1        52 2.58819E+01 9.65926E+01 0.00000E+00
 -1        53 2.07912E+01 9.78148E+01 0.00000E+00
 -1        54 1.56434E+01 9.87688E+01 0.00000E+00
 -1        55 1.04528E+01 9.94522E+01 0.00000E+00
 -1        56 5.23360E+00 9.98630E+01 0.00000E+00
 -1        57 6.10793E-15 9.97500E+01 0.00000E+00
 -1        58 6.09262E-15 9.95000E+01 0.00000E+00
 -1        59 6.07731E-15 9.92500E+01 0.00000E+00
 -1        60 6.06200E-15 9.90000E+01 0.00000E+00
 -1        61 6.04669E-15 9.87500E+01 0.00000E+00
 -1        62 6.03139E-15 9.85000E+01 0.00000E+00
 -1        63 6.01608E-15 9.82500E+01 0.00000E+00
 -1        64 6.00077E-15 9.80000E+01 0.00000E+00
 -1        65 5.98546E-15 9.77500E+01 0.00000E+00
 -1        66 5.97015E-15 9.75000E+01 0.00000E+00
 -1        67 5.95484E-15 9.72500E+01 0.00000E+00
 -1        68 5.93954E-15 9.70000E+01 0.00000E+00
 -1        69 5.92423E-15 9.67500E+01 0.00000E+00
 -1        70 5.90892E-15 9.65000E+01 0.00000E+00
 -1        71 5.89361E-15 9.62500E+01 0.00000E+00
 -1        72 5.87830E-15 9.60000E+01 0.00000E+00
 -1        73 5.86300E-15 9.57500E+01 0.00000E+00
 -1        74 5.84769E-15 9.55000E+01 0.00000E+00
 -1        75 5.83238E-15 9.52500E+01 0.00000E+00
 -1        76 4.97192E+00 9.48698E+01 0.00000E+00
 -1        77 9.93020E+00 9.44796E+01 0.00000E+00
 -1        78 1.48613E+01 9.38304E+01 0.00000E+00
 -1        79 1.97516E+01 9.29240E+01 0.00000E+00
 -1        80 2.45878E+01 9.17630E+01 0.00000E+00
 -1        81 2.93566E+01 9.03504E+01 0.00000E+00
 -1        82 3.40450E+01 8.86901E+01 0.00000E+00
 -1        83 3.86400E+01 8.67868E+01 0.00000E+00
 -1        84 4.31291E+01 8.46456E+01 0.00000E+00
 -1        85 4.75000E+01 8.22724E+01 0.00000E+00
 -1        86 5.17407E+01 7.96737E+01 0.00000E+00
 -1        87 5.58396E+01 7.68566E+01 0.00000E+00
 -1        88 5.97854E+01 7.38289E+01 0.00000E+00
 -1        89 6.35674E+01 7.05988E+01 0.00000E+00
 -1        90 6.71751E+01 6.71751E+01 0.00000E+00
 -1        91 7.05988E+01 6.35674E+01 0.00000E+00
 -1        92 7.38289E+01 5.97854E+01 0.00000E+00
 -1        93 7.68566E+01 5.58396E+01 0.00000E+00
 -1        94 7.96737E+01 5.17407E+01 0.00000E+00
 -1        95 8.22724E+01 4.75000E+01 0.00000E+00
 -1        96 8.46456E+01 4.31291E+01 0.00000E+00
 -1        97 8.67868E+01 3.86400E+01 0.00000E+00
 -1        98 8.86901E+01 3.40450E+01 0.00000E+00
 -1        99 9.03504E+01 2.93566E+01 0.00000E+00
 -1       100 9.17630E+01 2.45878E+01 0.00000E+00
 -1       101 9.29240E+01 1.97516E+01 0.00000E+00
 -1       102 9.38304E+01 1.48613E+01 0.00000E+00
 -1       103 9.44796E+01 9.93020E+00 0.00000E+00
 -1       104 9.48698E+01 4.97192E+00 0.00000E+00
 -1       105 9.52500E+01 0.00000E+00 1.00000E+01
 -1       106 9.55000E+01 0.00000E+00 1.00000E+01
 -1       107 9.57500E+01 0.00000E+00 1.00000E+01
 -1       108 9.60000E+01 0.00000E+00 1.00000E+01
 -1       109 9.62500E+01 0.00000E+00 1.00000E+01
 -1       110 9.65000E+01 0.00000E+00 1.00000E+01
 -1       111 9.67500E+01 0.00000E+00 1.00000E+01
 -1       112 9.70000E+01 0.00000E+00 1.00000E+01
 -1       113 9.72500E+01 0.00000E+00 1.00000E+01
 -1       114 9.75000E+01 0.00000E+00 1.00000E+01
 -1       115 9.77500E+01 0.00000E+00 1.00000E+01
 -1       116 9.80000E+01 0.00000E+00 1.00000E+01
 -1       117 9.82500E+01 0.00000E+00 1.00000E+01
 -1       118 9.85000E+01 0.00000E+00 1.00000E+01
 -1       119 9.87500E+01 0.00000E+00 1.00000E+01
 -1       120 9.90000E+01 0.00000E+00 1.00000E+01
 -1       121 9.92500E+01 0.00000E+00 1.00000E+01
 -1       122 9.95000E+01 0.00000E+00 1.00000E+01
 -1       123 9.97500E+01 0.00000E+00 1.00000E+01
 -1       124 9.98630E+01 5.23360E+00 1.00000E+01
 -1       125 9.94522E+01 1.04528E+01 1.00000E+01
 -1       126 9.87688E+01 1.56434E+01 1.00000E+01
 -1       127 9.78148E+01 2.07912E+01 1.00000E+01
 -1       128 9.65926E+01 2.58819E+01 1.00000E+01
 -1       129 9.51057E+01 3.09017E+01 1.00000E+01
 -1       130 9.33580E+01 3.58368E+01 1.00000E+01
 -1       131 9.13545E+01 4.06737E+01 1.00000E+01
 -1       132 8.91007E+01 4.53991E+01 1.00000E+01
 -1       133 8.66025E+01 5.00000E+01 1.00000E+01
 -1       134 8.38671E+01 5.44639E+01 1.00000E+01
 -1       135 8.09017E+01 5.87785E+01 1.00000E+01
 -1       136 7.77146E+01 6.29320E+01 1.00000E+01
 -1       137 7.43145E+01 6.69131E+01 1.00000E+01
 -1       138 7.07107E+01 7.07107E+01 1.00000E+01
 -1       139 6.69131E+01 7.43145E+01 1.00000E+01
 -1       140 6.29320E+01 7.77146E+01 1.00000E+01
 -1       141 5.87785E+01 8.09017E+01 1.00000E+01
 -1       142 5.44639E+01 8.38671E+01 1.00000E+01
 -1       143 5.00000E+01 8.66025E+01 1.00000E+01
 -1       144 4.53991E+01 8.91007E+01 1.00000E+01
 -1       145 4.06737E+01 9.13545E+01 1.00000E+01
 -1       146 3.58368E+01 9.33580E+01 1.00000E+01
 -1       147 3.09017E+01 9.51057E+01 1.00000E+01
 -1       148 2.58819E+01 9.65926E+01 1.00000E+01
 -1       149 2.07912E+01 9.78148E+01 1.00000E+01
 -1       150 1.56434E+01 9.87688E+01 1.00000E+01
 -1       151 1.04528E+01 9.94522E+01 1.00000E+01
 -1       152 5.23360E+00 9.98630E+01 1.00000E+01
 -1       153 6.10793E-15 9.97500E+01 1.00000E+01
 -1       154 6.09262E-15 9.95000E+01 1.00000E+01
 -1       155 6.07731E-15 9.92500E+01 1.00000E+01
 -1       156 6.06200E-15 9.90000E+01 1.00000E+01
 -1       157 6.04669E-15 9.87500E+01 1.00000E+01
 -1       158 6.03139E-15 9.85000E+01 1.00000E+01
 -1       159 6.01608E-15 9.82500E+01 1.00000E+01
 -1       160 6.00077E-15 9.80000E+01 1.00000E+01
 -1       161 5.98546E-15 9.77500E+01 1.00000E+01
 -1       162 5.97015E-15 9.75000E+01 1.00000E+01
 -1       163 5.95484E-15 9.72500E+01 1.00000E+01
 -1       164 5.93954E-15 9.70000E+01 1.00000E+01
 -1       165 5.92423E-15 9.67500E+01 1.00000E+01
 -1       166 5.90892E-15 9.65000E+01 1.00000E+01
 -1       167 5.89361E-15 9.62500E+01 1.00000E+01
 -1       168 5.87830E-15 9.60000E+01 1.00000E+01
 -1       169 5.86300E-15 9.57500E+01 1.00000E+01
 -1       170 5.84769E-15 9.55000E+01 1.00000E+01
 -1       171 5.83238E-15 9.52500E+01 1.00000E+01
 -1       172 4.97192E+00 9.48698E+01 1.00000E+01
 -1       173 9.93020E+00 9.44796E+01 1.00000E+01
 -1       174 1.48613E+01 9.38304E+01 1.00000E+01
 -1       175 1.97516E+01 9.29240E+01 1.00000E+01
 -1       176 2.45878E+01 9.17630E+01 1.00000E+01
 -1       177 2.93566E+01 9.03504E+01 1.00000E+01
 -1       178 3.40450E+01 8.86901E+01 1.00000E+01
 -1       179 3.86400E+01 8.67868E+01 1.00000E+01
 -1       180 4.31291E+01 8.46456E+01 1.00000E+01
 -1       181 4.75000E+01 8.22724E+01 1.00000E+01
 -1       182 5.17407E+01 7.96737E+01 1.00000E+01
 -1       183 5.58396E+01 7.68566E+01 1.00000E+01
 -1       184 5.97854E+01 7.38289E+01 1.00000E+01
 -1       185 6.35674E+01 7.05988E+01 1.00000E+01
 -1       186 6.71751E+01 6.71751E+01 1.00000E+01
 -1       187 7.05988E+01 6.35674E+01 1.00000E+01
 -1       188 7.38289E+01 5.97854E+01 1.00000E+01
 -1       189 7.68566E+01 5.58396E+01 1.00000E+01
 -1       190 7.96737E+01 5.17407E+01 1.00000E+01
 -1       191 8.22724E+01 4.75000E+01 1.00000E+01
 -1       192 8.46456E+01 4.31291E+01 1.00000E+01
 -1       193 8.67868E+01 3.86400E+01 1.00000E+01
 -1       194 8.86901E+01 3.40450E+01 1.00000E+01
 -1       195 9.03504E+01 2.93566E+01 1.00000E+01
 -1       196 9.17630E+01 2.45878E+01 1.00000E+01
 -1       197 9.29240E+01 1.97516E+01 1.00000E+01
 -1       198 9.38304E+01 1.48613E+01 1.00000E+01
 -1       199 9.44796E+01 9.93020E+00 1.00000E+01
 -1       200 9.48698E+01 4.97192E+00 1.00000E+01
 -1       201 9.50000E+01 0.00000E+00 9.09091E-01
 -1       202 9.50000E+01 0.00000E+00 1.81818E+00
 -1       203 9.50000E+01 0.00000E+00 2.72727E+00
 -1       204 9.50000E+01 0.00000E+00 3.63636E+00
 -1       205 9.50000E+01 0.00000E+00 4.54545E+00
 -1       206 9.50000E+01 0.00000E+00 5.45455E+00
 -1       207 9.50000E+01 0.00000E+00 6.36364E+00
 -1       208 9.50000E+01 0.00000E+00 7.27273E+00
 -1       209 9.50000E+01 0.00000E+00 8.18182E+00
 -1       210 9.50000E+01 0.00000E+00 9.09091E+00
 -1       211 1.00000E+02 0.00000E+00 9.09091E-01
 -1       212 1.00000E+02 0.00000E+00 1.81818E+00
 -1       213 1.00000E+02 0.00000E+00 2.72727E+00
 -1       214 1.00000E+02 0.00000E+00 3.63636E+00
 -1       215 1.00000E+02 0.00000E+00 4.54545E+00
 -1       216 1.00000E+02 0.00000E+00 5.45455E+00
 -1       217 1.00000E+02 0.00000E+00 6.36364E+00
 -1       218 1.00000E+02 0.00000E+00 7.27273E+00
 -1       219 1.00000E+02 0.00000E+00 8.18182E+00
 -1       220 1.00000E+02 0.00000E+00 9.09091E+00
 -1       221 6.12323E-15 1.00000E+02 9.09091E-01
 -1       222 6.12323E-15 1.00000E+02 1.81818E+00
 -1       223 6.12323E-15 1.00000E+02 2.72727E+00
 -1       224 6.12323E-15 1.00000E+02 3.63636E+00
 -1       225 6.12323E-15 1.00000E+02 4.54545E+00
 -1       226 6.12323E-15 1.00000E+02 5.45455E+00
 -1       227 6.12323E-15 1.00000E+02 6.36364E+00
 -1       228 6.12323E-15 1.00000E+02 7.27273E+00
 -1       229 6.12323E-15 1.00000E+02 8.18182E+00
 -1       230 6.12323E-15 1.00000E+02 9.09091E+00
 -1       231 5.81707E-15 9.50000E+01 9.09091E-01
 -1       232 5.81707E-15 9.50000E+01 1.81818E+00
 -1       233 5.81707E-15 9.50000E+01 2.72727E+00
 -1       234 5.81707E-15 9.50000E+01 3.63636E+00
 -1       235 5.81707E-15 9.50000E+01 4.54545E+00
 -1       236 5.81707E-15 9.50000E+01 5.45455E+00
 -1       237 5.81707E-15 9.50000E+01 6.36364E+00
 -1       238 5.81707E-15 9.50000E+01 7.27273E+00
 -1       239 5.81707E-15 9.50000E+01 8.18182E+00
 -1       240 5.81707E-15 9.50000E+01 9.09091E+00
 -1       241 9.51195E+01 4.98500E+00 0.00000E+00
 -1       242 9.47282E+01 9.95634E+00 0.00000E+00
 -1       243 9.40773E+01 1.49004E+01 0.00000E+00
 -1       244 9.31686E+01 1.98036E+01 0.00000E+00
 -1       245 9.20044E+01 2.46525E+01 0.00000E+00
 -1       246 9.05881E+01 2.94339E+01 0.00000E+00
 -1       247 8.89235E+01 3.41345E+01 0.00000E+00
 -1       248 8.70152E+01 3.87417E+01 0.00000E+00
 -1       249 8.48684E+01 4.32426E+01 0.00000E+00
 -1       250 8.24889E+01 4.76250E+01 0.00000E+00
 -1       251 7.98834E+01 5.18769E+01 0.00000E+00
 -1       252 7.70589E+01 5.59865E+01 0.00000E+00
 -1       253 7.40232E+01 5.99428E+01 0.00000E+00
 -1       254 7.07845E+01 6.37347E+01 0.00000E+00
 -1       255 6.73519E+01 6.73519E+01 0.00000E+00
 -1       256 6.37347E+01 7.07845E+01 0.00000E+00
 -1       257 5.99428E+01 7.40232E+01 0.00000E+00
 -1       258 5.59865E+01 7.70589E+01 0.00000E+00
 -1       259 5.18769E+01 7.98834E+01 0.00000E+00
 -1       260 4.76250E+01 8.24889E+01 0.00000E+00
 -1       261 4.32426E+01 8.48684E+01 0.00000E+00
 -1       262 3.87417E+01 8.70152E+01 0.00000E+00
 -1       263 3.41345E+01 8.89235E+01 0.00000E+00
 -1       264 2.94339E+01 9.05881E+01 0.00000E+00
 -1       265 2.46525E+01 9.20044E+01 0.00000E+00
 -1       266 1.98036E+01 9.31686E+01 0.00000E+00
 -1       267 1.49004E+01 9.40773E+01 0.00000E+00
 -1       268 9.95634E+00 9.47282E+01 0.00000E+00
 -1       269 4.98500E+00 9.51195E+01 0.00000E+00
 -1       270 9.53691E+01 4.99808E+00 0.00000E+00
 -1       271 9.49768E+01 9.98247E+00 0.00000E+00
 -1       272 9.43242E+01 1.49395E+01 0.00000E+00
 -1       273 9.34131E+01 1.98556E+01 0.00000E+00
 -1       274 9.22459E+01 2.47172E+01 0.00000E+00
 -1       275 9.08259E+01 2.95111E+01 0.00000E+00
 -1       276 8.91569E+01 3.42241E+01 0.00000E+00
 -1       277 8.72436E+01 3.88433E+01 0.00000E+00
 -1       278 8.50911E+01 4.33561E+01 0.00000E+00
 -1       279 8.27054E+01 4.77500E+01 0.00000E+00
 -1       280 8.00930E+01 5.20130E+01 0.00000E+00
 -1       281 7.72611E+01 5.61335E+01 0.00000E+00
 -1       282 7.42174E+01 6.01001E+01 0.00000E+00
 -1       283 7.09703E+01 6.39020E+01 0.00000E+00
 -1       284 6.75287E+01 6.75287E+01 0.00000E+00
 -1       285 6.39020E+01 7.09703E+01 0.00000E+00
 -1       286 6.01001E+01 7.42174E+01 0.00000E+00
 -1       287 5.61335E+01 7.72611E+01 0.00000E+00
 -1       288 5.20130E+01 8.00930E+01 0.00000E+00
 -1       289 4.77500E+01 8.27054E+01 0.00000E+00
 -1       290 4.33561E+01 8.50911E+01 0.00000E+00
 -1       291 3.88433E+01 8.72436E+01 0.00000E+00
 -1       292 3.42241E+01 8.91569E+01 0.00000E+00
 -1       293 2.95111E+01 9.08259E+01 0.00000E+00
 -1       294 2.47172E+01 9.22459E+01 0.00000E+00
 -1       295 1.98556E+01 9.34131E+01 0.00000E+00
 -1       296 1.49395E+01 9.43242E+01 0.00000E+00
 -1       297 9.98247E+00 9.49768E+01 0.00000E+00
 -1       298 4.99808E+00 9.53691E+01 0.00000E+00
 -1       299 9.56188E+01 5.01117E+00 0.00000E+00
 -1       300 9.52255E+01 1.00086E+01 0.00000E+00
 -1       301 9.45712E+01 1.49786E+01 0.00000E+00
 -1       302 9.36576E+01 1.99075E+01 0.00000E+00
 -1       303 9.24874E+01 2.47819E+01 0.00000E+00
 -1       304 9.10637E+01 2.95884E+01 0.00000E+00
 -1       305 8.93903E+01 3.43137E+01 0.00000E+00
 -1       306 8.74720E+01 3.89450E+01 0.00000E+00
 -1       307 8.53139E+01 4.34696E+01 0.00000E+00
 -1       308 8.29219E+01 4.78750E+01 0.00000E+00
 -1       309 8.03027E+01 5.21492E+01 0.00000E+00
 -1       310 7.74634E+01 5.62804E+01 0.00000E+00
 -1       311 7.44117E+01 6.02574E+01 0.00000E+00
 -1       312 7.11561E+01 6.40693E+01 0.00000E+00
 -1       313 6.77055E+01 6.77055E+01 0.00000E+00
 -1       314 6.40693E+01 7.11561E+01 0.00000E+00
 -1       315 6.02574E+01 7.44117E+01 0.00000E+00
 -1       316 5.62804E+01 7.74634E+01 0.00000E+00
 -1       317 5.21492E+01 8.03027E+01 0.00000E+00
 -1       318 4.78750E+01 8.29219E+01 0.00000E+00
 -1       319 4.34696E+01 8.53139E+01 0.00000E+00
 -1       320 3.89450E+01 8.74720E+01 0.00000E+00
 -1       321 3.43137E+01 8.93903E+01 0.00000E+00
 -1       322 2.95884E+01 9.10637E+01 0.00000E+00
 -1       323 2.47819E+01 9.24874E+01 0.00000E+00
 -1       324 1.99075E+01 9.36576E+01 0.00000E+00
 -1       325 1.49786E+01 9.45712E+01 0.00000E+00
 -1       326 1.00086E+01 9.52255E+01 0.00000E+00
 -1       327 5.01117E+00 9.56188E+01 0.00000E+00
 -1       328 9.58684E+01 5.02425E+00 0.00000E+00
 -1       329 9.54741E+01 1.00347E+01 0.00000E+00
 -1       330 9.48181E+01 1.50177E+01 0.00000E+00
 -1       331 9.39022E+01 1.99595E+01 0.00000E+00
 -1       332 9.27289E+01 2.48466E+01 0.00000E+00
 -1       333 9.13014E+01 2.96656E+01 0.00000E+00
 -1       334 8.96237E+01 3.44033E+01 0.00000E+00
 -1       335 8.77004E+01 3.90467E+01 0.00000E+00
 -1       336 8.55366E+01 4.35831E+01 0.00000E+00
 -1       337 8.31384E+01 4.80000E+01 0.00000E+00
 -1       338 8.05124E+01 5.22853E+01 0.00000E+00
 -1       339 7.76656E+01 5.64274E+01 0.00000E+00
 -1       340 7.46060E+01 6.04148E+01 0.00000E+00
 -1       341 7.13419E+01 6.42365E+01 0.00000E+00
 -1       342 6.78822E+01 6.78822E+01 0.00000E+00
 -1       343 6.42365E+01 7.13419E+01 0.00000E+00
 -1       344 6.04148E+01 7.46060E+01 0.00000E+00
 -1       345 5.64274E+01 7.76656E+01 0.00000E+00
 -1       346 5.22853E+01 8.05124E+01 0.00000E+00
 -1       347 4.80000E+01 8.31384E+01 0.00000E+00
 -1       348 4.35831E+01 8.55366E+01 0.00000E+00
 -1       349 3.90467E+01 8.77004E+01 0.00000E+00
 -1       350 3.44033E+01 8.96237E+01 0.00000E+00
 -1       351 2.96656E+01 9.13014E+01 0.00000E+00
 -1       352 2.48466E+01 9.27289E+01 0.00000E+00
 -1       353 1.99595E+01 9.39022E+01 0.00000E+00
 -1       354 1.50177E+01 9.48181E+01 0.00000E+00
 -1       355 1.00347E+01 9.54741E+01 0.00000E+00
 -1       356 5.02425E+00 9.58684E+01 0.00000E+00
 -1       357 9.61181E+01 5.03734E+00 0.00000E+00
 -1       358 9.57227E+01 1.00609E+01 0.00000E+00
 -1       359 9.50650E+01 1.50568E+01 0.00000E+00
 -1       360 9.41467E+01 2.00115E+01 0.00000E+00
 -1       361 9.29704E+01 2.49113E+01 0.00000E+00
 -1       362 9.15392E+01 2.97429E+01 0.00000E+00
 -1       363 8.98571E+01 3.44929E+01 0.00000E+00
 -1       364 8.79287E+01 3.91484E+01 0.00000E+00
 -1       365 8.57594E+01 4.36966E+01 0.00000E+00
 -1       366 8.33549E+01 4.81250E+01 0.00000E+00
 -1       367 8.07220E+01 5.24215E+01 0.00000E+00
 -1       368 7.78679E+01 5.65743E+01 0.00000E+00
 -1       369 7.48003E+01 6.05721E+01 0.00000E+00
 -1       370 7.15277E+01 6.44038E+01 0.00000E+00
 -1       371 6.80590E+01 6.80590E+01 0.00000E+00
 -1       372 6.44038E+01 7.15277E+01 0.00000E+00
 -1       373 6.05721E+01 7.48003E+01 0.00000E+00
 -1       374 5.65743E+01 7.78679E+01 0.00000E+00
 -1       375 5.24215E+01 8.07220E+01 0.00000E+00
 -1       376 4.81250E+01 8.33549E+01 0.00000E+00
 -1       377 4.36966E+01 8.57594E+01 0.00000E+00
 -1       378 3.91484E+01 8.79287E+01 0.00000E+00
 -1       379 3.44929E+01 8.98571E+01 0.00000E+00
 -1       380 2.97429E+01 9.15392E+01 0.00000E+00
 -1       381 2.49113E+01 9.29704E+01 0.00000E+00
 -1       382 2.00115E+01 9.41467E+01 0.00000E+00
 -1       383 1.50568E+01 9.50650E+01 0.00000E+00
 -1       384 1.00609E+01 9.57227E+01 0.00000E+00
 -1       385 5.03734E+00 9.61181E+01 0.00000E+00
 -1       386 9.63678E+01 5.05042E+00 0.00000E+00
 -1       387 9.59714E+01 1.00870E+01 0.00000E+00
 -1       388 9.53119E+01 1.50959E+01 0.00000E+00
 -1       389 9.43912E+01 2.00635E+01 0.00000E+00
 -1       390 9.32118E+01 2.49760E+01 0.00000E+00
 -1       391 9.17770E+01 2.98201E+01 0.00000E+00
 -1       392 9.00905E+01 3.45825E+01 0.00000E+00
 -1       393 8.81571E+01 3.92501E+01 0.00000E+00
 -1       394 8.59821E+01 4.38101E+01 0.00000E+00
 -1       395 8.35714E+01 4.82500E+01 0.00000E+00
 -1       396 8.09317E+01 5.25577E+01 0.00000E+00
 -1       397 7.80701E+01 5.67213E+01 0.00000E+00
 -1       398 7.49946E+01 6.07294E+01 0.00000E+00
 -1       399 7.17135E+01 6.45711E+01 0.00000E+00
 -1       400 6.82358E+01 6.82358E+01 0.00000E+00
 -1       401 6.45711E+01 7.17135E+01 0.00000E+00
 -1       402 6.07294E+01 7.49946E+01 0.00000E+00
 -1       403 5.67213E+01 7.80701E+01 0.00000E+00
 -1       404 5.25577E+01 8.09317E+01 0.00000E+00
 -1       405 4.82500E+01 8.35714E+01 0.00000E+00
 -1       406 4.38101E+01 8.59821E+01 0.00000E+00
 -1       407 3.92501E+01 8.81571E+01 0.00000E+00
 -1       408 3.45825E+01 9.00905E+01 0.00000E+00
 -1       409 2.98201E+01 9.17770E+01 0.00000E+00
 -1       410 2.49760E+01 9.32118E+01 0.00000E+00
 -1       411 2.00635E+01 9.43912E+01 0.00000E+00
 -1       412 1.50959E+01 9.53119E+01 0.00000E+00
 -1       413 1.00870E+01 9.59714E+01 0.00000E+00
 -1       414 5.05042E+00 9.63678E+01 0.00000E+00
 -1       415 9.66174E+01 5.06350E+00 0.00000E+00
 -1       416 9.62200E+01 1.01131E+01 0.00000E+00
 -1       417 9.55588E+01 1.51350E+01 0.00000E+00
 -1       418 9.46358E+01 2.01155E+01 0.00000E+00
 -1       419 9.34533E+01 2.50407E+01 0.00000E+00
 -1       420 9.20147E+01 2.98974E+01 0.00000E+00
 -1       421 9.03239E+01 3.46721E+01 0.00000E+00
 -1       422 8.83855E+01 3.93518E+01 0.00000E+00
 -1       423 8.62049E+01 4.39236E+01 0.00000E+00
 -1       424 8.37880E+01 4.83750E+01 0.00000E+00
 -1       425 8.11414E+01 5.26938E+01 0.00000E+00
 -1       426 7.82724E+01 5.68682E+01 0.00000E+00
 -1       427 7.51889E+01 6.08867E+01 0.00000E+00
 -1       428 7.18993E+01 6.47384E+01 0.00000E+00
 -1       429 6.84126E+01 6.84126E+01 0.00000E+00
 -1       430 6.47384E+01 7.18993E+01 0.00000E+00
 -1       431 6.08867E+01 7.51889E+01 0.00000E+00
 -1       432 5.68682E+01 7.82724E+01 0.00000E+00
 -1       433 5.26938E+01 8.11414E+01 0.00000E+00
 -1       434 4.83750E+01 8.37880E+01 0.00000E+00
 -1       435 4.39236E+01 8.62049E+01 0.00000E+00
 -1       436 3.93518E+01 8.83855E+01 0.00000E+00
 -1       437 3.46721E+01 9.03239E+01 0.00000E+00
 -1       438 2.98974E+01 9.20147E+01 0.00000E+00
 -1       439 2.50407E+01 9.34533E+01 0.00000E+00
 -1       440 2.01155E+01 9.46358E+01 0.00000E+00
 -1       441 1.51350E+01 9.55588E+01 0.00000E+00
 -1       442 1.01131E+01 9.62200E+01 0.00000E+00
 -1       443 5.06350E+00 9.66174E+01 0.00000E+00
 -1       444 9.68671E+01 5.07659E+00 0.00000E+00
 -1       445 9.64686E+01 1.01393E+01 0.00000E+00
 -1       446 9.58058E+01 1.51741E+01 0.00000E+00
 -1       447 9.48803E+01 2.01674E+01 0.00000E+00
 -1       448 9.36948E+01 2.51054E+01 0.00000E+00
 -1       449 9.22525E+01 2.99746E+01 0.00000E+00
 -1       450 9.05573E+01 3.47617E+01 0.00000E+00
 -1       451 8.86139E+01 3.94535E+01 0.00000E+00
 -1       452 8.64276E+01 4.40371E+01 0.00000E+00
 -1       453 8.40045E+01 4.85000E+01 0.00000E+00
 -1       454 8.13510E+01 5.28300E+01 0.00000E+00
 -1       455 7.84746E+01 5.70152E+01 0.00000E+00
 -1       456 7.53832E+01 6.10441E+01 0.00000E+00
 -1       457 7.20850E+01 6.49057E+01 0.00000E+00
 -1       458 6.85894E+01 6.85894E+01 0.00000E+00
 -1       459 6.49057E+01 7.20850E+01 0.00000E+00
 -1       460 6.10441E+01 7.53832E+01 0.00000E+00
 -1       461 5.70152E+01 7.84746E+01 0.00000E+00
 -1       462 5.28300E+01 8.13510E+01 0.00000E+00
 -1       463 4.85000E+01 8.40045E+01 0.00000E+00
 -1       464 4.40371E+01 8.64276E+01 0.00000E+00
 -1       465 3.94535E+01 8.86139E+01 0.00000E+00
 -1       466 3.47617E+01 9.05573E+01 0.00000E+00
 -1       467 2.99746E+01 9.22525E+01 0.00000E+00
 -1       468 2.51054E+01 9.36948E+01 0.00000E+00
 -1       469 2.01674E+01 9.48803E+01 0.00000E+00
 -1       470 1.51741E+01 9.58058E+01 0.00000E+00
 -1       471 1.01393E+01 9.64686E+01 0.00000E+00
 -1       472 5.07659E+00 9.68671E+01 0.00000E+00
 -1       473 9.71167E+01 5.08967E+00 0.00000E+00
 -1       474 9.67173E+01 1.01654E+01 0.00000E+00
 -1       475 9.60527E+01 1.52133E+01 0.00000E+00
 -1       476 9.51249E+01 2.02194E+01 0.00000E+00
 -1       477 9.39363E+01 2.51702E+01 0.00000E+00
 -1       478 9.24902E+01 3.00519E+01 0.00000E+00
 -1       479 9.07907E+01 3.48513E+01 0.00000E+00
 -1       480 8.88423E+01 3.95551E+01 0.00000E+00
 -1       481 8.66504E+01 4.41506E+01 0.00000E+00
 -1       482 8.42210E+01 4.86250E+01 0.00000E+00
 -1       483 8.15607E+01 5.29661E+01 0.00000E+00
 -1       484 7.86769E+01 5.71621E+01 0.00000E+00
 -1       485 7.55774E+01 6.12014E+01 0.00000E+00
 -1       486 7.22708E+01 6.50730E+01 0.00000E+00
 -1       487 6.87661E+01 6.87661E+01 0.00000E+00
 -1       488 6.50730E+01 7.22708E+01 0.00000E+00
 -1       489 6.12014E+01 7.55774E+01 0.00000E+00
 -1       490 5.71621E+01 7.86769E+01 0.00000E+00
 -1       491 5.29661E+01 8.15607E+01 0.00000E+00
 -1       492 4.86250E+01 8.42210E+01 0.00000E+00
 -1       493 4.41506E+01 8.66504E+01 0.00000E+00
 -1       494 3.95551E+01 8.88423E+01 0.00000E+00
 -1       495 3.48513E+01 9.07907E+01 0.00000E+00
 -1       496 3.00519E+01 9.24902E+01 0.00000E+00
 -1       497 2.51702E+01 9.39363E+01 0.00000E+00
 -1       498 2.02194E+01 9.51249E+01 0.00000E+00
 -1       499 1.52133E+01 9.60527E+01 0.00000E+00
 -1       500 1.01654E+01 9.67173E+01 0.00000E+00
 -1       501 5.08967E+00 9.71167E+01 0.00000E+00
 -1       502 9.73664E+01 5.10276E+00 0.00000E+00
 -1       503 9.69659E+01 1.01915E+01 0.00000E+00
 -1       504 9.62996E+01 1.52524E+01 0.00000E+00
 -1       505 9.53694E+01 2.02714E+01 0.00000E+00
 -1       506 9.41778E+01 2.52349E+01 0.00000E+00
 -1       507 9.27280E+01 3.01292E+01 0.00000E+00
 -1       508 9.10241E+01 3.49409E+01 0.00000E+00
 -1       509 8.90707E+01 3.96568E+01 0.00000E+00
 -1       510 8.68731E+01 4.42641E+01 0.00000E+00
 -1       511 8.44375E+01 4.87500E+01 0.00000E+00
 -1       512 8.17704E+01 5.31023E+01 0.00000E+00
 -1       513 7.88792E+01 5.73091E+01 0.00000E+00
 -1       514 7.57717E+01 6.13587E+01 0.00000E+00
 -1       515 7.24566E+01 6.52402E+01 0.00000E+00
 -1       516 6.89429E+01 6.89429E+01 0.00000E+00
 -1       517 6.52402E+01 7.24566E+01 0.00000E+00
 -1       518 6.13587E+01 7.57717E+01 0.00000E+00
 -1       519 5.73091E+01 7.88792E+01 0.00000E+00
 -1       520 5.31023E+01 8.17704E+01 0.00000E+00
 -1       521 4.87500E+01 8.44375E+01 0.00000E+00
 -1       522 4.42641E+01 8.68731E+01 0.00000E+00
 -1       523 3.96568E+01 8.90707E+01 0.00000E+00
 -1       524 3.49409E+01 9.10241E+01 0.00000E+00
 -1       525 3.01292E+01 9.27280E+01 0.00000E+00
 -1       526 2.52349E+01 9.41778E+01 0.00000E+00
 -1       527 2.02714E+01 9.53694E+01 0.00000E+00
 -1       528 1.52524E+01 9.62996E+01 0.00000E+00
 -1       529 1.01915E+01 9.69659E+01 0.00000E+00
 -1       530 5.10276E+00 9.73664E+01 0.00000E+00
 -1       531 9.76160E+01 5.11584E+00 0.00000E+00
 -1       532 9.72145E+01 1.02177E+01 0.00000E+00
 -1       533 9.65465E+01 1.52915E+01 0.00000E+00
 -1       534 9.56139E+01 2.03234E+01 0.00000E+00
 -1       535 9.44193E+01 2.52996E+01 0.00000E+00
 -1       536 9.29658E+01 3.02064E+01 0.00000E+00
 -1       537 9.12575E+01 3.50305E+01 0.00000E+00
 -1       538 8.92991E+01 3.97585E+01 0.00000E+00
 -1       539 8.70959E+01 4.43776E+01 0.00000E+00
 -1       540 8.46540E+01 4.88750E+01 0.00000E+00
 -1       541 8.19800E+01 5.32385E+01 0.00000E+00
 -1       542 7.90814E+01 5.74560E+01 0.00000E+00
 -1       543 7.59660E+01 6.15161E+01 0.00000E+00
 -1       544 7.26424E+01 6.54075E+01 0.00000E+00
 -1       545 6.91197E+01 6.91197E+01 0.00000E+00
 -1       546 6.54075E+01 7.26424E+01 0.00000E+00
 -1       547 6.15161E+01 7.59660E+01 0.00000E+00
 -1       548 5.74560E+01 7.90814E+01 0.00000E+00
 -1       549 5.32385E+01 8.19800E+01 0.00000E+00
 -1       550 4.88750E+01 8.46540E+01 0.00000E+00
 -1       551 4.43776E+01 8.70959E+01 0.00000E+00
 -1       552 3.97585E+01 8.92991E+01 0.00000E+00
 -1       553 3.50305E+01 9.12575E+01 0.00000E+00
 -1       554 3.02064E+01 9.29658E+01 0.00000E+00
 -1       555 2.52996E+01 9.44193E+01 0.00000E+00
 -1       556 2.03234E+01 9.56139E+01 0.00000E+00
 -1       557 1.52915E+01 9.65465E+01 0.00000E+00
 -1       558 1.02177E+01 9.72145E+01 0.00000E+00
 -1       559 5.11584E+00 9.76160E+01 0.00000E+00
 -1       560 9.78657E+01 5.12892E+00 0.00000E+00
 -1       561 9.74631E+01 1.02438E+01 0.00000E+00
 -1       562 9.67935E+01 1.53306E+01 0.00000E+00
 -1       563 9.58585E+01 2.03753E+01 0.00000E+00
 -1       564 9.46607E+01 2.53643E+01 0.00000E+00
 -1       565 9.32035E+01 3.02837E+01 0.00000E+00
 -1       566 9.14909E+01 3.51201E+01 0.00000E+00
 -1       567 8.95275E+01 3.98602E+01 0.00000E+00
 -1       568 8.73186E+01 4.44911E+01 0.00000E+00
 -1       569 8.48705E+01 4.90000E+01 0.00000E+00
 -1       570 8.21897E+01 5.33746E+01 0.00000E+00
 -1       571 7.92837E+01 5.76030E+01 0.00000E+00
 -1       572 7.61603E+01 6.16734E+01 0.00000E+00
 -1       573 7.28282E+01 6.55748E+01 0.00000E+00
 -1       574 6.92965E+01 6.92965E+01 0.00000E+00
 -1       575 6.55748E+01 7.28282E+01 0.00000E+00
 -1       576 6.16734E+01 7.61603E+01 0.00000E+00
 -1       577 5.76030E+01 7.92837E+01 0.00000E+00
 -1       578 5.33746E+01 8.21897E+01 0.00000E+00
 -1       579 4.90000E+01 8.48705E+01 0.00000E+00
 -1       580 4.44911E+01 8.73186E+01 0.00000E+00
 -1       581 3.98602E+01 8.95275E+01 0.00000E+00
 -1       582 3.51201E+01 9.14909E+01 0.00000E+00