# vtk DataFile Version 5.1
vtk output
ASCII
DATASET UNSTRUCTURED_GRID
POINTS 12618 float
2.5 2.5 0 2.5 -2.5 0 -2.5 -2.5 0 
-2.5 2.5 0 8 8 0 8 -8 0 
-8 -8 0 -8 8 0 25 37.5 0 
25 8 0 25 -8 0 25 -37.5 0 
8 -37.5 0 -8 -37.5 0 -25 -37.5 0 
-25 -8 0 -25 8 0 -25 37.5 0 
-8 37.5 0 8 37.5 0 7.3074 7.3074 0 
6.68406 6.68406 0 6.12305 6.12305 0 5.61815 5.61815 0 
5.16373 5.16373 0 4.75476 4.75476 0 4.38668 4.38668 0 
4.05541 4.05541 0 3.75727 3.75727 0 3.48895 3.48895 0 
3.24745 3.24745 0 3.03011 3.03011 0 2.83449 2.83449 0 
2.65844 2.65844 0 7.6537 7.6537 0 6.99573 6.99573 0 
6.40356 6.40356 0 5.8706 5.8706 0 5.39094 5.39094 0 
4.95925 4.95925 0 4.57072 4.57072 0 4.22105 4.22105 0 
3.90634 3.90634 0 3.62311 3.62311 0 3.3682 3.3682 0 
3.13878 3.13878 0 2.9323 2.9323 0 2.74647 2.74647 0 
2.57922 2.57922 0 7.3074 -7.3074 0 6.68406 -6.68406 0 
6.12305 -6.12305 0 5.61815 -5.61815 0 5.16373 -5.16373 0 
4.75476 -4.75476 0 4.38668 -4.38668 0 4.05541 -4.05541 0 
3.75727 -3.75727 0 3.48895 -3.48895 0 3.24745 -3.24745 0 
3.03011 -3.03011 0 2.83449 -2.83449 0 2.65844 -2.65844 0 
7.6537 -7.6537 0 6.99573 -6.99573 0 6.40356 -6.40356 0 
5.8706 -5.8706 0 5.39094 -5.39094 0 4.95925 -4.95925 0 
4.57072 -4.57072 0 4.22105 -4.22105 0 3.90634 -3.90634 0 
3.62311 -3.62311 0 3.3682 -3.3682 0 3.13878 -3.13878 0 
2.9323 -2.9323 0 2.74647 -2.74647 0 2.57922 -2.57922 0 
-7.3074 -7.3074 0 -6.68406 -6.68406 0 -6.12305 -6.12305 0 
-5.61815 -5.61815 0 -5.16373 -5.16373 0 -4.75476 -4.75476 0 
-4.38668 -4.38668 0 -4.05541 -4.05541 0 -3.75727 -3.75727 0 
-3.48895 -3.48895 0 -3.24745 -3.24745 0 -3.03011 -3.03011 0 
-2.83449 -2.83449 0 -2.65844 -2.65844 0 -7.6537 -7.6537 0 
-6.99573 -6.99573 0 -6.40356 -6.40356 0 -5.8706 -5.8706 0 
-5.39094 -5.39094 0 -4.95925 -4.95925 0 -4.57072 -4.57072 0 
-4.22105 -4.22105 0 -3.90634 -3.90634 0 -3.62311 -3.62311 0 
-3.3682 -3.3682 0 -3.13878 -3.13878 0 -2.9323 -2.9323 0 
-2.74647 -2.74647 0 -2.57922 -2.57922 0 -7.3074 7.3074 0 
-6.68406 6.68406 0 -6.12305 6.12305 0 -5.61815 5.61815 0 
-5.16373 5.16373 0 -4.75476 4.75476 0 -4.38668 4.38668 0 
-4.05541 4.05541 0 -3.75727 3.75727 0 -3.48895 3.48895 0 
-3.24745 3.24745 0 -3.03011 3.03011 0 -2.83449 2.83449 0 
-2.65844 2.65844 0 -7.6537 7.6537 0 -6.99573 6.99573 0 
-6.40356 6.40356 0 -5.8706 5.8706 0 -5.39094 5.39094 0 
-4.95925 4.95925 0 -4.57072 4.57072 0 -4.22105 4.22105 0 
-3.90634 3.90634 0 -3.62311 3.62311 0 -3.3682 3.3682 0 
-3.13878 3.13878 0 -2.9323 2.9323 0 -2.74647 2.74647 0 
-2.57922 2.57922 0 2.74763 2.22498 0 2.96515 1.92559 0 
3.15018 1.6051 0 3.30071 1.26702 0 3.41506 0.915064 0 
3.49201 0.553079 0 3.53069 0.185036 0 3.53069 -0.185036 0 
3.49201 -0.553079 0 3.41506 -0.915064 0 3.30071 -1.26702 0 
3.15018 -1.6051 0 2.96515 -1.92559 0 2.74763 -2.22498 0 
2.62741 2.36573 0 2.86031 2.07813 0 3.06186 1.76777 0 
3.22987 1.43803 0 3.36249 1.09254 0 3.45827 0.735079 0 
3.51617 0.369564 0 3.53553 -7.28188e-09 0 3.51617 -0.369564 0 
3.45827 -0.735079 0 3.36249 -1.09254 0 3.22987 -1.43803 0 
3.06186 -1.76777 0 2.86031 -2.07813 0 2.62741 -2.36573 0 
2.22498 -2.74763 0 1.92559 -2.96515 0 1.6051 -3.15018 0 
1.26702 -3.30071 0 0.915064 -3.41506 0 0.553079 -3.49201 0 
0.185036 -3.53069 0 -0.185036 -3.53069 0 -0.553079 -3.49201 0 
-0.915064 -3.41506 0 -1.26702 -3.30071 0 -1.6051 -3.15018 0 
-1.92559 -2.96515 0 -2.22498 -2.74763 0 2.36573 -2.62741 0 
2.07813 -2.86031 0 1.76777 -3.06186 0 1.43803 -3.22987 0 
1.09254 -3.36249 0 0.735079 -3.45827 0 0.369564 -3.51617 0 
-7.28188e-09 -3.53553 0 -0.369564 -3.51617 0 -0.735079 -3.45827 0 
-1.09254 -3.36249 0 -1.43803 -3.22987 0 -1.76777 -3.06186 0 
-2.07813 -2.86031 0 -2.36573 -2.62741 0 -2.74763 -2.22498 0 
-2.96515 -1.92559 0 -3.15018 -1.6051 0 -3.30071 -1.26702 0 
-3.41506 -0.915064 0 -3.49201 -0.553079 0 -3.53069 -0.185036 0 
-3.53069 0.185036 0 -3.49201 0.553079 0 -3.41506 0.915064 0 
-3.30071 1.26702 0 -3.15018 1.6051 0 -2.96515 1.92559 0 
-2.74763 2.22498 0 -2.62741 -2.36573 0 -2.86031 -2.07813 0 
-3.06186 -1.76777 0 -3.22987 -1.43803 0 -3.36249 -1.09254 0 
-3.45827 -0.735079 0 -3.51617 -0.369564 0 -3.53553 7.28188e-09 0 
-3.51617 0.369564 0 -3.45827 0.735079 0 -3.36249 1.09254 0 
-3.22987 1.43803 0 -3.06186 1.76777 0 -2.86031 2.07813 0 
-2.62741 2.36573 0 -2.22498 2.74763 0 -1.92559 2.96515 0 
-1.6051 3.15018 0 -1.26702 3.30071 0 -0.915064 3.41506 0 
-0.553079 3.49201 0 -0.185036 3.53069 0 0.185036 3.53069 0 
0.553079 3.49201 0 0.915064 3.41506 0 1.26702 3.30071 0 
1.6051 3.15018 0 1.92559 2.96515 0 2.22498 2.74763 0 
-2.36573 2.62741 0 -2.07813 2.86031 0 -1.76777 3.06186 0 
-1.43803 3.22987 0 -1.09254 3.36249 0 -0.735079 3.45827 0 
-0.369564 3.51617 0 7.28188e-09 3.53553 0 0.369564 3.51617 0 
0.735079 3.45827 0 1.09254 3.36249 0 1.43803 3.22987 0 
1.76777 3.06186 0 2.07813 2.86031 0 2.36573 2.62741 0 
8 6.93333 0 8 5.86667 0 8 4.8 0 
8 3.73333 0 8 2.66667 0 8 1.6 0 
8 0.533333 0 8 -0.533333 0 8 -1.6 0 
8 -2.66667 0 8 -3.73333 0 8 -4.8 0 
8 -5.86667 0 8 -6.93333 0 8 7.46667 0 
8 6.4 0 8 5.33333 0 8 4.26667 0 
8 3.2 0 8 2.13333 0 8 1.06667 0 
8 2.21778e-11 0 8 -1.06667 0 8 -2.13333 0 
8 -3.2 0 8 -4.26667 0 8 -5.33333 0 
8 -6.4 0 8 -7.46667 0 6.93333 -8 0 
5.86667 -8 0 4.8 -8 0 3.73333 -8 0 
2.66667 -8 0 1.6 -8 0 0.533333 -8 0 
-0.533333 -8 0 -1.6 -8 0 -2.66667 -8 0 
-3.73333 -8 0 -4.8 -8 0 -5.86667 -8 0 
-6.93333 -8 0 7.46667 -8 0 6.4 -8 0 
5.33333 -8 0 4.26667 -8 0 3.2 -8 0 
2.13333 -8 0 1.06667 -8 0 2.21778e-11 -8 0 
-1.06667 -8 0 -2.13333 -8 0 -3.2 -8 0 
-4.26667 -8 0 -5.33333 -8 0 -6.4 -8 0 
-7.46667 -8 0 -8 -6.93333 0 -8 -5.86667 0 
-8 -4.8 0 -8 -3.73333 0 -8 -2.66667 0 
-8 -1.6 0 -8 -0.533333 0 -8 0.533333 0 
-8 1.6 0 -8 2.66667 0 -8 3.73333 0 
-8 4.8 0 -8 5.86667 0 -8 6.93333 0 
-8 -7.46667 0 -8 -6.4 0 -8 -5.33333 0 
-8 -4.26667 0 -8 -3.2 0 -8 -2.13333 0 
-8 -1.06667 0 -8 -2.21778e-11 0 -8 1.06667 0 
-8 2.13333 0 -8 3.2 0 -8 4.26667 0 
-8 5.33333 0 -8 6.4 0 -8 7.46667 0 
-6.93333 8 0 -5.86667 8 0 -4.8 8 0 
-3.73333 8 0 -2.66667 8 0 -1.6 8 0 
-0.533333 8 0 0.533333 8 0 1.6 8 0 
2.66667 8 0 3.73333 8 0 4.8 8 0 
5.86667 8 0 6.93333 8 0 -7.46667 8 0 
-6.4 8 0 -5.33333 8 0 -4.26667 8 0 
-3.2 8 0 -2.13333 8 0 -1.06667 8 0 
-2.21778e-11 8 0 1.06667 8 0 2.13333 8 0 
3.2 8 0 4.26667 8 0 5.33333 8 0 
6.4 8 0 7.46667 8 0 25 36.4828 0 
25 35.4655 0 25 34.4483 0 25 33.431 0 
25 32.4138 0 25 31.3966 0 25 30.3793 0 
25 29.3621 0 25 28.3448 0 25 27.3276 0 
25 26.3103 0 25 25.2931 0 25 24.2759 0 
25 23.2586 0 25 22.2414 0 25 21.2241 0 
25 20.2069 0 25 19.1897 0 25 18.1724 0 
25 17.1552 0 25 16.1379 0 25 15.1207 0 
25 14.1034 0 25 13.0862 0 25 12.069 0 
25 11.0517 0 25 10.0345 0 25 9.01724 0 
25 36.9914 0 25 35.9741 0 25 34.9569 0 
25 33.9397 0 25 32.9224 0 25 31.9052 0 
25 30.8879 0 25 29.8707 0 25 28.8534 0 
25 27.8362 0 25 26.819 0 25 25.8017 0 
25 24.7845 0 25 23.7672 0 25 22.75 0 
25 21.7328 0 25 20.7155 0 25 19.6983 0 
25 18.681 0 25 17.6638 0 25 16.6466 0 
25 15.6293 0 25 14.6121 0 25 13.5948 0 
25 12.5776 0 25 11.5603 0 25 10.5431 0 
25 9.52586 0 25 8.50862 0 25 6.93333 0 
25 5.86667 0 25 4.8 0 25 3.73333 0 
25 2.66667 0 25 1.6 0 25 0.533333 0 
25 -0.533333 0 25 -1.6 0 25 -2.66667 0 
25 -3.73333 0 25 -4.8 0 25 -5.86667 0 
25 -6.93333 0 25 7.46667 0 25 6.4 0 
25 5.33333 0 25 4.26667 0 25 3.2 0 
25 2.13333 0 25 1.06667 0 25 2.21778e-11 0 
25 -1.06667 0 25 -2.13333 0 25 -3.2 0 
25 -4.26667 0 25 -5.33333 0 25 -6.4 0 
25 -7.46667 0 25 -9.01724 0 25 -10.0345 0 
25 -11.0517 0 25 -12.069 0 25 -13.0862 0 
25 -14.1034 0 25 -15.1207 0 25 -16.1379 0 
25 -17.1552 0 25 -18.1724 0 25 -19.1897 0 
25 -20.2069 0 25 -21.2241 0 25 -22.2414 0 
25 -23.2586 0 25 -24.2759 0 25 -25.2931 0 
25 -26.3103 0 25 -27.3276 0 25 -28.3448 0 
25 -29.3621 0 25 -30.3793 0 25 -31.3966 0 
25 -32.4138 0 25 -33.431 0 25 -34.4483 0 
25 -35.4655 0 25 -36.4828 0 25 -8.50862 0 
25 -9.52586 0 25 -10.5431 0 25 -11.5603 0 
25 -12.5776 0 25 -13.5948 0 25 -14.6121 0 
25 -15.6293 0 25 -16.6466 0 25 -17.6638 0 
25 -18.681 0 25 -19.6983 0 25 -20.7155 0 
25 -21.7328 0 25 -22.75 0 25 -23.7672 0 
25 -24.7845 0 25 -25.8017 0 25 -26.819 0 
25 -27.8362 0 25 -28.8534 0 25 -29.8707 0 
25 -30.8879 0 25 -31.9052 0 25 -32.9224 0 
25 -33.9397 0 25 -34.9569 0 25 -35.9741 0 
25 -36.9914 0 23.9375 -37.5 0 22.875 -37.5 0 
21.8125 -37.5 0 20.75 -37.5 0 19.6875 -37.5 0 
18.625 -37.5 0 17.5625 -37.5 0 16.5 -37.5 0 
15.4375 -37.5 0 14.375 -37.5 0 13.3125 -37.5 0 
12.25 -37.5 0 11.1875 -37.5 0 10.125 -37.5 0 
9.0625 -37.5 0 24.4688 -37.5 0 23.4062 -37.5 0 
22.3438 -37.5 0 21.2812 -37.5 0 20.2188 -37.5 0 
19.1562 -37.5 0 18.0938 -37.5 0 17.0312 -37.5 0 
15.9688 -37.5 0 14.9062 -37.5 0 13.8438 -37.5 0 
12.7812 -37.5 0 11.7188 -37.5 0 10.6562 -37.5 0 
9.59375 -37.5 0 8.53125 -37.5 0 6.93333 -37.5 0 
5.86667 -37.5 0 4.8 -37.5 0 3.73333 -37.5 0 
2.66667 -37.5 0 1.6 -37.5 0 0.533333 -37.5 0 
-0.533333 -37.5 0 -1.6 -37.5 0 -2.66667 -37.5 0 
-3.73333 -37.5 0 -4.8 -37.5 0 -5.86667 -37.5 0 
-6.93333 -37.5 0 7.46667 -37.5 0 6.4 -37.5 0 
5.33333 -37.5 0 4.26667 -37.5 0 3.2 -37.5 0 
2.13333 -37.5 0 1.06667 -37.5 0 2.21778e-11 -37.5 0 
-1.06667 -37.5 0 -2.13333 -37.5 0 -3.2 -37.5 0 
-4.26667 -37.5 0 -5.33333 -37.5 0 -6.4 -37.5 0 
-7.46667 -37.5 0 -9.0625 -37.5 0 -10.125 -37.5 0 
-11.1875 -37.5 0 -12.25 -37.5 0 -13.3125 -37.5 0 
-14.375 -37.5 0 -15.4375 -37.5 0 -16.5 -37.5 0 
-17.5625 -37.5 0 -18.625 -37.5 0 -19.6875 -37.5 0 
-20.75 -37.5 0 -21.8125 -37.5 0 -22.875 -37.5 0 
-23.9375 -37.5 0 -8.53125 -37.5 0 -9.59375 -37.5 0 
-10.6562 -37.5 0 -11.7188 -37.5 0 -12.7812 -37.5 0 
-13.8438 -37.5 0 -14.9062 -37.5 0 -15.9688 -37.5 0 
-17.0312 -37.5 0 -18.0938 -37.5 0 -19.1562 -37.5 0 
-20.2188 -37.5 0 -21.2812 -37.5 0 -22.3438 -37.5 0 
-23.4062 -37.5 0 -24.4688 -37.5 0 -25 -36.4828 0 
-25 -35.4655 0 -25 -34.4483 0 -25 -33.431 0 
-25 -32.4138 0 -25 -31.3966 0 -25 -30.3793 0 
-25 -29.3621 0 -25 -28.3448 0 -25 -27.3276 0 
-25 -26.3103 0 -25 -25.2931 0 -25 -24.2759 0 
-25 -23.2586 0 -25 -22.2414 0 -25 -21.2241 0 
-25 -20.2069 0 -25 -19.1897 0 -25 -18.1724 0 
-25 -17.1552 0 -25 -16.1379 0 -25 -15.1207 0 
[...]
POINT_DATA 12618
FIELD FieldData 5
U 3 12618 double
0.000418042 0.0181184 -1.3146e-18 0.000421355 0.0120883 1.14519e-18 0.00251183 0.0120883 1.24344e-18 
0.00251514 0.0181184 -7.92823e-19 0.000441006 0.0187333 1.999e-19 0.000428044 0.0114391 6.77626e-20 
0.00250514 0.0114391 -2.57498e-19 0.00249218 0.0187333 1.69407e-19 0.00146659 0.0298487 2.27005e-18 
-0.0017957 0.0179538 -7.65718e-19 -0.00183021 0.0119443 -1.35525e-19 -0.00133735 0 9.82558e-20 
0.000619551 0 1.01644e-20 0.00231363 0 -1.69407e-20 0.00427053 0 -1.4569e-19 
0.00476339 0.0119443 7.69106e-19 0.00472888 0.0179538 7.11508e-20 0.00146659 0.0298487 6.50521e-19 
0.00146659 0.0298487 4.87891e-19 0.00146659 0.0298487 3.38813e-19 0.000512379 0.0185078 -7.45389e-20 
0.000574983 0.0183136 -1.35525e-20 0.000628769 0.0181487 -6.84403e-19 0.000673561 0.0180115 -6.50521e-19 
0.000709115 0.0179007 4.23516e-19 0.000735076 0.0178153 3.21873e-19 0.000750963 0.0177544 -1.4569e-19 
0.00075616 0.0177176 -5.86147e-19 0.000749915 0.0177043 -1.39591e-18 0.000731355 0.0177144 3.59142e-19 
0.000699502 0.017748 1.16552e-18 0.000653308 0.017805 1.50094e-18 0.000591676 0.0178857 -1.25361e-19 
0.000513584 0.0179901 -8.02987e-19 0.000476859 0.0186195 6.57298e-19 0.000543963 0.0184095 6.77626e-20 
0.000602297 0.0182297 -4.74338e-19 0.000651731 0.0180785 -1.43657e-18 0.000692066 0.0179543 -6.23416e-19 
0.000723005 0.017856 1.53144e-18 0.000744134 0.0177826 6.97955e-19 0.000754905 0.0177335 -1.17907e-18 
0.000754636 0.0177081 -3.35425e-18 0.000742514 0.0177063 -1.51788e-18 0.00071761 0.0177278 2.37169e-18 
0.000678909 0.0177728 4.18095e-18 0.000625333 0.0178413 1.97189e-18 0.000555823 0.0179335 -1.50433e-18 
0.000469247 0.0180497 -3.26616e-18 0.000502535 0.0116709 2.37169e-20 0.000567494 0.0118702 2.03288e-20 
0.000623088 0.0120393 2.47334e-19 0.000669294 0.0121799 -2.98156e-19 0.000705982 0.0122934 3.42201e-19 
0.000732877 0.012381 9.65618e-19 0.000749555 0.0124437 9.21572e-19 0.000755445 0.0124821 -5.35325e-19 
0.000749827 0.0124966 3.15096e-19 0.000731852 0.0124876 1.01644e-20 0.000700562 0.012455 3.6253e-19 
0.000654923 0.0123988 5.0822e-20 0.000593846 0.0123191 3.04932e-20 0.000516319 0.0122156 3.21873e-19 
0.000465527 0.0115561 2.30393e-19 0.000535345 0.0117719 -1.55854e-19 0.000595745 0.0119563 8.53809e-19 
0.000646779 0.0121113 -3.79471e-19 0.000688381 0.0122385 1.69407e-19 0.000720348 0.0123393 2.19551e-18 
0.000742334 0.0124147 2.76472e-18 0.000753845 0.0124654 7.65718e-19 0.000754233 0.0124922 -2.37169e-19 
0.000742714 0.0124952 6.91179e-19 0.000718383 0.0124747 6.03087e-19 0.00068024 0.0124306 8.19928e-19 
0.000627218 0.012363 0 0.000558267 0.0122717 6.91179e-19 0.000472261 0.0121565 2.12097e-18 
0.00243065 0.0116709 3.28649e-19 0.00236569 0.0118702 -4.47233e-19 0.0023101 0.0120393 4.87891e-19 
0.00226389 0.0121799 5.0822e-20 0.0022272 0.0122934 -1.05032e-19 0.00220031 0.012381 -2.94767e-19 
0.00218363 0.0124437 3.38813e-21 0.00217774 0.0124821 2.47334e-19 0.00218336 0.0124966 6.84403e-19 
0.00220133 0.0124876 1.82959e-19 0.00223262 0.012455 -2.30393e-19 0.00227826 0.0123988 -5.86147e-19 
0.00233934 0.0123191 -4.74338e-20 0.00241686 0.0122156 6.36969e-19 0.00246766 0.0115561 4.74338e-20 
0.00239784 0.0117719 -2.84603e-19 0.00233744 0.0119563 -2.98156e-19 0.0022864 0.0121113 2.1684e-19 
0.0022448 0.0122385 2.57498e-19 0.00221284 0.0123393 -1.00966e-18 0.00219085 0.0124147 -6.7085e-19 
0.00217934 0.0124654 2.77827e-19 0.00217895 0.0124922 1.61275e-18 0.00219047 0.0124952 1.33492e-18 
0.0022148 0.0124747 7.45389e-20 0.00225294 0.0124306 -1.38236e-18 0.00230597 0.012363 -8.67362e-19 
0.00237492 0.0122717 9.89334e-19 0.00246092 0.0121565 2.83248e-18 0.0024208 0.0185078 -2.67662e-19 
0.0023582 0.0183136 -1.25361e-19 0.00230441 0.0181487 -3.32037e-19 0.00225962 0.0180115 2.47334e-19 
0.00222407 0.0179007 -3.93023e-19 0.00219811 0.0178153 -1.41285e-18 0.00218222 0.0177544 -1.36203e-18 
0.00217702 0.0177176 5.96311e-19 0.00218327 0.0177043 -7.65718e-19 0.00220183 0.0177144 1.25361e-19 
0.00223368 0.017748 -1.86347e-19 0.00227988 0.017805 -6.77626e-20 0.00234151 0.0178857 -5.42101e-19 
0.0024196 0.0179901 -5.75982e-20 0.00245632 0.0186195 -1.89735e-19 0.00238922 0.0184095 -7.18284e-19 
0.00233089 0.0182297 -1.06387e-18 0.00228145 0.0180785 2.1684e-19 0.00224112 0.0179543 -3.93023e-19 
0.00221018 0.017856 -3.09675e-18 0.00218905 0.0177826 -4.16063e-18 0.00217828 0.0177335 -1.61275e-18 
0.00217855 0.0177081 -4.06576e-19 0.00219067 0.0177063 -1.15874e-18 0.00221557 0.0177278 2.57498e-19 
0.00225427 0.0177728 -7.45389e-19 0.00230785 0.0178413 -9.62229e-19 0.00237736 0.0179335 -1.03677e-18 
0.00246394 0.0180497 -1.11808e-18 0.000313853 0.0177854 1.26039e-18 0.000222317 0.017423 -4.33681e-19 
0.000144458 0.0170352 3.79471e-19 8.11639e-05 0.0166264 3.38813e-19 3.31593e-05 0.0162011 1.35525e-19 
9.86965e-07 0.0157639 2.15485e-18 -1.49994e-05 0.0153196 -2.1684e-19 -1.46354e-05 0.0148732 -4.60786e-19 
2.06091e-06 0.0144296 -7.04731e-19 3.489e-05 0.0139936 1.15196e-19 8.34662e-05 0.0135699 -1.17907e-18 
0.00014722 0.0131633 -4.33681e-19 0.000225408 0.0127781 4.26905e-19 0.000317129 0.0124184 -2.5411e-19 
0.00036429 0.0179559 -5.82759e-19 0.000266277 0.0176077 1.12486e-18 0.000181435 0.0172321 -6.77626e-20 
0.00011072 0.0168332 1.43657e-18 5.49404e-05 0.0164155 5.42101e-19 1.47365e-05 0.0159836 3.2255e-18 
-9.42525e-06 0.0155423 2.41235e-18 -1.72652e-05 0.0150964 -1.11131e-18 -8.70068e-06 0.0146508 -1.73472e-18 
1.61494e-05 0.0142103 -9.75782e-19 5.69715e-05 0.0137799 -1.35525e-18 0.00011327 0.0133642 -2.38524e-18 
0.000184381 0.0129677 -2.71051e-20 0.00026948 0.0125947 -8.13152e-20 0.000367605 0.0122493 9.89334e-19 
0.0005368 0.0117912 2.93073e-19 0.000662345 0.0115303 -2.1684e-19 0.0007965 0.0113085 -5.91375e-19 
0.000937833 0.0111282 -3.94717e-19 0.00108482 0.0109912 -6.52215e-19 0.00123588 0.0108991 -9.89334e-19 
0.00138941 0.0108528 -1.16552e-18 0.00154377 0.0108528 8.13152e-20 0.0016973 0.0108991 -3.998e-19 
0.00184837 0.0109912 -4.91279e-19 0.00199535 0.0111282 4.75185e-19 0.00213668 0.0113085 5.79212e-19 
0.00227084 0.0115303 7.36072e-19 0.00239638 0.0117912 1.10114e-19 0.00047759 0.0119353 2.32426e-18 
0.000598282 0.011656 1.6263e-19 0.000728326 0.0114143 -1.36203e-18 0.000866291 0.0112129 -9.58841e-19 
0.00101068 0.011054 -1.63308e-18 0.00115993 0.0109393 -2.76472e-18 0.00131244 0.0108699 -4.00477e-18 
0.00146659 0.0108468 -1.07743e-18 0.00162074 0.0108699 -1.96512e-19 0.00177325 0.0109393 -1.24006e-18 
0.00192251 0.011054 2.1684e-19 0.00206689 0.0112129 1.65171e-18 0.00220486 0.0114143 2.17857e-18 
0.0023349 0.011656 1.10114e-18 0.00245559 0.0119353 2.04643e-18 0.00261605 0.0124184 -7.45389e-19 
0.00270778 0.0127781 1.0842e-19 0.00278596 0.0131633 -3.93023e-19 0.00284972 0.0135699 -4.87891e-19 
0.00289829 0.0139936 -6.43745e-19 0.00293112 0.0144296 -6.09864e-20 0.00294782 0.0148732 -3.45589e-19 
0.00294818 0.0153196 -5.42101e-20 0.0029322 0.0157639 4.60786e-19 0.00290002 0.0162011 6.09864e-19 
0.00285202 0.0166264 5.96311e-19 0.00278873 0.0170352 1.00289e-18 0.00271087 0.017423 2.71051e-20 
0.00261933 0.0177854 2.60886e-19 0.00256558 0.0122493 1.0571e-18 0.0026637 0.0125947 -1.00289e-18 
0.0027488 0.0129677 -4.20128e-19 0.00281991 0.0133642 -1.49078e-18 0.00287621 0.0137799 -1.87025e-18 
0.00291703 0.0142103 -9.21572e-19 0.00294188 0.0146508 -5.96311e-19 0.00295045 0.0150964 -1.6263e-19 
0.00294261 0.0155423 1.0571e-18 0.00291845 0.0159836 1.5992e-18 0.00287824 0.0164155 1.89735e-18 
0.00282246 0.0168332 2.27682e-18 0.00275175 0.0172321 1.28749e-18 0.00266691 0.0176077 6.91179e-19 
0.00256889 0.0179559 -7.58942e-19 0.00239959 0.0184184 -2.5411e-19 0.0022738 0.0186821 -6.95414e-19 
0.00213928 0.0189064 1.2909e-18 0.00199748 0.0190889 1.33408e-18 0.00184995 0.0192276 1.78046e-18 
0.00169827 0.0193209 2.25141e-18 0.0015441 0.0193678 2.52755e-18 0.00138908 0.0193678 1.6263e-19 
0.00123491 0.0193209 3.21873e-19 0.00108324 0.0192276 7.96211e-20 0.000935705 0.0190889 -1.15705e-18 
0.000793904 0.0189064 -1.29591e-18 0.000659384 0.0186821 -6.27651e-19 0.000533595 0.0184184 -2.42251e-19 
0.00245887 0.0182729 -1.63986e-18 0.002338 0.0185551 -1.56871e-18 0.00220765 0.0187994 1.15535e-18 
0.00206927 0.0190031 2.58599e-18 0.00192437 0.019164 4.93651e-18 0.00177454 0.0192802 6.48488e-18 
0.00162139 0.0193504 8.40934e-18 0.00146659 0.0193739 3.25938e-18 0.00131179 0.0193504 3.04932e-19 
0.00115865 0.0192802 5.28549e-19 0.00100882 0.019164 -1.4569e-18 0.000863917 0.0190031 -3.47029e-18 
0.000725533 0.0187994 -3.17129e-18 0.000595182 0.0185551 -1.29088e-18 0.000474312 0.0182729 -2.66985e-18 
0.000362988 0.0182523 1.55854e-19 0.000262377 0.0177596 -1.28749e-19 0.000138656 0.017259 -6.47133e-19 
-2.33459e-06 0.0167571 -4.40457e-20 -0.000145223 0.0162623 7.11508e-20 -0.00026523 0.0157806 3.96411e-19 
-0.00033464 0.015312 -3.15096e-19 -0.000334694 0.0148489 5.59042e-19 -0.000265553 0.0143806 -1.15196e-19 
-0.000146232 0.0138996 3.76083e-19 -4.566e-06 0.013406 3.55754e-19 0.00013464 0.0129058 2.47334e-19 
0.00025601 0.0124073 -5.45489e-19 0.000353666 0.0119172 1.69407e-20 0.000404652 0.0184944 2.77827e-19 
0.000315631 0.0180072 0 0.000203179 0.0175099 -1.0571e-18 6.95028e-05 0.0170076 -1.53144e-18 
-7.50288e-05 0.0165083 4.06576e-20 -0.000209945 0.0160196 1.39591e-18 -0.000307771 0.015545 5.01444e-19 
-0.000343761 0.0150804 -2.30393e-19 -0.000307922 0.014616 2.71051e-20 -0.000210548 0.0141419 3.11708e-19 
-7.65789e-05 0.0136541 9.62229e-19 6.64491e-05 0.0131563 8.67362e-19 0.00019806 0.0126559 1.35525e-20 
0.000307865 0.0121609 -1.09775e-18 0.000393602 0.0116765 1.96512e-19 0.000609981 0.0113167 2.77827e-19 
0.000793008 0.0111638 2.13452e-19 0.000969675 0.0109816 -8.80914e-20 0.00112966 0.0107798 2.27005e-19 
0.00126248 0.0105799 -5.64124e-19 0.00136274 0.0104148 9.08019e-19 0.00143558 0.0103203 -2.59192e-19 
0.0014976 0.0103203 9.99499e-20 0.00157044 0.0104148 2.87991e-20 0.0016707 0.0105799 -1.05032e-19 
0.00180353 0.0107798 9.14796e-20 0.00196351 0.0109816 9.48677e-20 0.00214017 0.0111638 2.91379e-19 
0.0023232 0.0113167 -3.55754e-19 0.000518551 0.0113816 7.04731e-19 0.000701769 0.0112441 5.69206e-19 
0.000882771 0.0110759 4.26905e-19 0.00105249 0.0108819 -4.06576e-20 0.00120001 0.0106776 -4.74338e-19 
0.00131664 0.0104906 1.15196e-19 0.00140176 0.0103568 1.47045e-18 0.00146659 0.010308 -4.06576e-19 
0.00153142 0.0103568 -1.21973e-19 0.00161654 0.0104906 -9.48677e-20 0.00173318 0.0106776 1.01644e-19 
0.00188069 0.0108819 3.38813e-19 0.00205041 0.0110759 4.47233e-19 0.00223141 0.0112441 -4.74338e-20 
0.00241463 0.0113816 -1.53144e-18 0.00257952 0.0119172 -2.13452e-19 0.00267717 0.0124073 4.43845e-19 
0.00279854 0.0129058 5.42101e-20 0.00293775 0.013406 3.48978e-19 0.00307941 0.0138996 3.72694e-19 
0.00319874 0.0143806 -1.55854e-19 0.00326788 0.0148489 2.98156e-19 0.00326782 0.015312 -7.72494e-19 
0.00319841 0.0157806 -2.23617e-19 0.00307841 0.0162623 -1.4569e-19 0.00293552 0.0167571 -1.72795e-19 
0.00279453 0.017259 -3.35425e-19 0.00267081 0.0177596 5.31937e-19 0.0025702 0.0182523 -3.93023e-19 
0.00253958 0.0116765 -4.40457e-19 0.00262532 0.0121609 3.93023e-19 0.00273512 0.0126559 1.76183e-19 
0.00286673 0.0131563 5.69206e-19 0.00300976 0.0136541 1.20617e-18 0.00314373 0.0141419 1.35525e-20 
0.0032411 0.014616 5.14996e-19 0.00327694 0.0150804 -2.03288e-19 0.00324095 0.015545 -1.23328e-18 
0.00314313 0.0160196 -9.48677e-19 0.00300821 0.0165083 -7.72494e-19 0.00286368 0.0170076 -8.67362e-19 
0.00273 0.0175099 1.76183e-19 0.00261755 0.0180072 1.49078e-19 0.00252853 0.0184944 -7.99599e-19 
0.00231152 0.0188682 -9.21572e-19 0.00212988 0.0190323 3.04932e-20 0.0019547 0.0192241 -1.15196e-19 
0.00179634 0.0194339 2.67662e-19 0.00166532 0.01964 1.18415e-18 0.00156707 0.0198095 -1.46367e-18 
0.00149645 0.0199063 1.71101e-19 0.00143673 0.0199063 1.32137e-19 0.00136611 0.0198095 1.0842e-19 
0.00126787 0.01964 1.64324e-19 0.00113684 0.0194339 6.09864e-20 0.00097848 0.0192241 1.82959e-19 
0.000803301 0.0190323 3.82859e-19 0.000621658 0.0188682 4.33681e-19 0.0024023 0.0187972 -1.82959e-18 
0.00222042 0.0189466 -8.67362e-19 0.00204085 0.0191252 -4.33681e-19 0.00187268 0.0193279 1.14519e-18 
0.00172686 0.0195394 2.80537e-18 0.00161214 0.0197317 -4.20128e-19 0.00152915 0.0198689 -2.08709e-18 
0.00146659 0.0199189 3.998e-19 0.00140404 0.0198689 -4.74338e-20 0.00132104 0.0197317 3.32037e-19 
0.00120632 0.0195394 -1.0842e-19 0.0010605 0.0193279 -7.45389e-19 0.000892334 0.0191252 1.78893e-18 
0.000712766 0.0189466 4.5401e-19 0.000530884 0.0187972 2.72406e-18 0.000988161 0.0291346 -9.48677e-20 
0.000668911 0.0286324 4.40457e-20 0.000413087 0.0281817 1.3993e-18 0.000199731 0.0277556 -8.43645e-19 
1.46132e-05 0.0273456 6.57298e-19 -0.00014764 0.0269455 -2.74439e-19 -0.000291443 0.0265518 1.71439e-18 
-0.000419842 0.0261621 -5.6243e-19 -0.00053523 0.025775 4.91279e-19 -0.000639526 0.0253893 -8.60585e-19 
-0.000734332 0.025004 4.81115e-19 -0.000821012 0.0246186 -2.67662e-19 -0.000900756 0.0242326 6.36969e-19 
-0.000974616 0.0238456 -1.38913e-19 -0.00104353 0.0234575 7.28448e-19 -0.00110834 0.023068 -5.89535e-19 
-0.00116979 0.0226772 4.7095e-19 -0.00122857 0.022285 -2.5411e-19 -0.00128526 0.0218916 -4.06576e-20 
-0.00134037 0.0214971 2.60886e-19 -0.00139431 0.0211019 1.63308e-18 -0.00144738 0.0207061 -1.35186e-18 
-0.00149979 0.0203102 2.67662e-19 -0.00155162 0.0199145 -2.1684e-19 -0.00160282 0.0195195 3.48978e-19 
-0.00165321 0.0191255 5.14996e-19 -0.00170248 0.018733 5.86147e-19 -0.00175016 0.0183423 4.06576e-20 
0.00119491 0.0294662 5.16351e-18 0.000813792 0.0288698 4.06576e-20 0.000534606 0.0284026 4.93312e-18 
0.000302346 0.0279658 1.73472e-18 0.000103941 0.027549 9.75782e-19 -6.90748e-05 0.0271445 -5.01444e-19 
-0.000221658 0.026748 2.91379e-18 -0.000357418 0.0263565 2.81215e-18 -0.000479043 0.0259683 -1.2265e-18 
-0.000588665 0.025582 -6.64074e-19 -0.000688031 0.0251966 -6.64074e-19 -0.000778613 0.0248114 7.86047e-19 
-0.000861685 0.0244257 1.52466e-18 -0.000938362 0.0240392 3.79471e-19 -0.00100964 0.0236517 1.84992e-18 
-0.0010764 0.0232629 3.65918e-19 -0.00113944 0.0228728 -5.69206e-19 -0.00119948 0.0224812 1.28749e-18 
-0.00125715 0.0220884 -9.75782e-19 -0.00131299 0.0216945 -8.80914e-20 -0.00136746 0.0212996 3.12386e-18 
-0.00142093 0.020904 4.26905e-19 -0.00147365 0.0205081 -3.21195e-18 -0.00152577 0.0201123 -4.74338e-20 
-0.0015773 0.0197169 4.5401e-19 -0.00162813 0.0193223 2.05998e-18 -0.00167801 0.018929 1.78216e-18 
-0.00172655 0.0185374 1.41624e-18 -0.00177324 0.0181478 -1.28749e-18 -0.0018404 0.0175489 1.52466e-19 
-0.00188116 0.0171467 -1.15196e-19 -0.00191709 0.016747 -4.74338e-19 -0.00194733 0.0163497 1.05032e-19 
-0.0019711 0.0159542 -7.18284e-19 -0.00198779 0.0155599 -3.32037e-19 -0.00199697 0.0151662 3.38813e-20 
-0.00199847 0.0147722 -3.89635e-19 -0.00199236 0.014377 4.06576e-19 -0.00197901 0.0139799 -2.30393e-19 
-0.00195899 0.0135801 9.48677e-19 -0.0019331 0.013177 5.45489e-19 -0.00190231 0.0127702 3.79471e-19 
-0.00186765 0.0123593 5.59042e-19 -0.00181849 0.0177511 -2.58853e-18 -0.00186133 0.0173475 6.77626e-21 
-0.00189979 0.0169466 -9.01243e-19 -0.00193297 0.0165481 -3.25261e-19 -0.00196007 0.0161517 -8.47033e-19 
-0.00198037 0.0157569 -1.26039e-18 -0.00199334 0.015363 4.74338e-19 -0.00199869 0.0149693 -6.09864e-19 
-0.00199636 0.0145748 1.28749e-19 -0.00198657 0.0141788 3.59142e-19 -0.00196979 0.0137804 1.19262e-18 
-0.00194672 0.013379 2.85958e-18 -0.00191826 0.0129741 1.39591e-18 -0.0018854 0.0125652 1.84992e-18 
-0.00184921 0.0121523 8.13152e-20 -0.00179288 0.0115448 -2.91379e-19 -0.00175484 0.0111418 3.21873e-19 
-0.00171686 0.0107356 2.03288e-20 -0.00167963 0.0103266 1.66018e-19 -0.00164368 0.00991512 -1.11808e-19 
-0.00160946 0.00950166 3.35425e-19 -0.0015773 0.00908664 -1.42302e-19 -0.00154741 0.00867045 2.94767e-19 
-0.00151993 0.00825348 -1.21973e-19 -0.0014949 0.00783608 -1.01644e-20 -0.00147231 0.00741855 -2.64274e-19 
-0.00145209 0.00700114 1.93124e-19 -0.00143414 0.00658406 2.74439e-19 -0.00141833 0.00616748 -2.71051e-20 
-0.00140449 0.00575154 -1.18585e-19 -0.00139248 0.00533631 8.80914e-20 -0.00138212 0.00492186 -2.03288e-20 
-0.00137325 0.00450821 1.999e-19 -0.00136572 0.00409536 0 -0.00135937 0.00368329 -2.37169e-20 
-0.00135407 0.00327197 1.49078e-19 -0.00134969 0.00286135 9.14796e-20 -0.00134613 0.00245136 6.77626e-21 
-0.00134327 0.00204192 1.32137e-19 -0.00134105 0.00163295 -1.01644e-20 -0.00133939 0.00122437 2.03288e-20 
-0.00133824 0.000816083 6.43745e-20 -0.00133757 0.000407992 -7.45389e-20 -0.00181168 0.011745 -1.40269e-18 
-0.00177389 0.0113437 -4.5401e-19 -0.0017358 0.0109391 4.94667e-19 -0.00169811 0.0105314 4.67562e-19 
-0.00166146 0.0101211 2.77827e-19 -0.00162633 0.00970861 6.64074e-19 -0.00159311 0.00929432 6.50521e-19 
-0.00156206 0.00887867 6.91179e-19 -0.00153336 0.00846204 1.0842e-19 -0.00150711 0.00804482 -3.93023e-19 
-0.0014833 0.00762732 -4.60786e-19 -0.00146191 0.00720981 1.21973e-19 -0.00144284 0.00679255 6.23416e-19 
-0.00142598 0.0063757 4.06576e-19 -0.00141117 0.00595943 -1.6263e-19 -0.00139827 0.00554383 -1.0842e-19 
-0.0013871 0.00512899 1.35525e-19 -0.00137751 0.00471493 2.10064e-19 -0.00136933 0.00430168 1.69407e-19 
-0.00136241 0.00388923 6.09864e-20 -0.0013566 0.00347754 1.28749e-19 -0.00135177 0.00306658 4.33681e-19 
-0.00134781 0.00265628 5.42101e-20 -0.00134462 0.00224657 2.77827e-19 -0.00134209 0.00183738 1.0842e-19 
-0.00134015 0.00142862 1.49078e-19 -0.00133876 0.0010202 2.50722e-19 -0.00133785 0.000612019 -6.77626e-20 
-0.0013374 0.00020399 1.0842e-19 -0.00120961 0 3.72694e-20 -0.00108218 0 5.42101e-20 
-0.000955206 0 8.13152e-20 -0.000828806 0 6.77626e-21 -0.000703082 0 3.72694e-20 
-0.00057812 0 4.74338e-20 -0.000453994 0 -1.69407e-20 -0.000330763 0 0 
-0.000208476 0 0 -8.71689e-05 0 -1.69407e-20 3.31318e-05 0 -3.38813e-21 
0.000152413 0 4.06576e-20 0.000270675 0 3.38813e-21 0.00038793 0 3.38813e-20 
0.000504208 0 3.38813e-21 -0.00127345 0 2.84603e-19 -0.00114584 0 8.13152e-20 
-0.00101863 0 1.89735e-19 -0.000891927 0 1.21973e-19 -0.000765854 0 8.13152e-20 
-0.000640501 0 1.01644e-19 -0.000515949 0 8.80914e-20 -0.000392263 0 -2.03288e-20 
-0.000269499 0 0 -0.000147698 0 -7.45389e-20 -2.68917e-05 0 -4.74338e-20 
9.29002e-05 0 6.09864e-20 0.000211671 0 5.42101e-20 0.000329427 0 1.0842e-19 
0.000446189 0 7.45389e-20 0.000561993 0 6.77626e-21 0.000734467 0 2.37169e-20 
0.000848578 0 3.72694e-20 0.000961976 0 -3.38813e-21 0.00107477 0 6.09864e-20 
0.00118707 0 -6.77626e-21 0.00129903 0 4.06576e-20 0.00141076 0 6.43745e-20 
0.00152242 0 -3.04932e-20 0.00163416 0 3.04932e-20 0.00174611 0 5.42101e-20 
0.00185841 0 3.04932e-20 0.00197121 0 3.38813e-20 0.00208461 0 2.71051e-20 
0.00219872 0 6.77626e-21 0.000677114 0 1.0842e-19 0.000791617 0 1.28749e-19 
0.000905359 0 7.45389e-20 0.00101844 0 1.0842e-19 0.00113097 0 1.28749e-19 
0.00124309 0 9.48677e-20 0.00135491 0 2.71051e-19 0.00146659 0 8.80914e-20 
0.00157827 0 8.80914e-20 0.0016901 0 2.23617e-19 0.00180221 0 2.77827e-19 
0.00191474 0 1.6263e-19 0.00202782 0 4.74338e-20 0.00214157 0 1.15196e-19 
0.00225607 0 7.45389e-20 0.00242898 0 1.21973e-19 0.00254525 0 -2.20229e-19 
0.00266251 0 5.0822e-20 0.00278077 0 9.48677e-20 0.00290005 0 1.59242e-19 
0.00302035 0 -2.94767e-19 0.00314166 0 1.55854e-19 0.00326395 0 -1.35525e-19 
0.00338718 0 3.72694e-20 0.0035113 0 -2.03288e-20 0.00363627 0 -7.45389e-20 
0.00376199 0 -2.5411e-19 0.00388839 0 1.35525e-19 0.00401536 0 -9.48677e-20 
0.00414279 0 1.59242e-19 0.00237119 0 3.11708e-19 0.00248699 0 -1.15196e-19 
0.00260376 0 -2.10064e-19 0.00272151 0 2.1684e-19 0.00284028 0 2.77827e-19 
0.00296007 0 -1.0842e-19 0.00308088 0 6.09864e-20 0.00320268 0 -1.01644e-19 
0.00332545 0 -2.1684e-19 0.00344913 0 -1.21973e-19 0.00357368 0 -1.82959e-19 
0.00369904 0 -3.11708e-19 0.00382511 0 -2.43945e-19 0.00395181 0 -4.06576e-20 
0.00407903 0 2.91379e-19 0.00420663 0 -3.38813e-20 0.00427075 0.000407992 1.0842e-19 
0.00427143 0.000816083 -3.59142e-19 0.00427257 0.00122437 2.1684e-19 0.00427423 0.00163295 1.69407e-20 