    1C
    1U plate.inp                                                        
    1UUSER                                                              
    1UDATE              31.august.2021                                  
    1UTIME              12:18:58                                        
    1UHOST                                                              
    1UPGM               CalculiX                                        
    1UVERSION           Version 2.17                             
    1UCOMPILETIME       Thu Jul 23 21:43:50 CEST 2020                    
    1UDIR                                                               
    1UDBN                                                               
    1UMAT    1STEEL                                                     
    2C                         12618                                     1
 -1         1 2.50000E+00 2.50000E+00 0.00000E+00
 -1         2 2.50000E+00-2.50000E+00 0.00000E+00
 -1         3-2.50000E+00-2.50000E+00 0.00000E+00
 -1         4-2.50000E+00 2.50000E+00 0.00000E+00
 -1         5 8.00000E+00 8.00000E+00 0.00000E+00
 -1         6 8.00000E+00-8.00000E+00 0.00000E+00
 -1         7-8.00000E+00-8.00000E+00 0.00000E+00
 -1         8-8.00000E+00 8.00000E+00 0.00000E+00
 -1         9 2.50000E+01 3.75000E+01 0.00000E+00
 -1        10 2.50000E+01 8.00000E+00 0.00000E+00
 -1        11 2.50000E+01-8.00000E+00 0.00000E+00
 -1        12 2.50000E+01-3.75000E+01 0.00000E+00
 -1        13 8.00000E+00-3.75000E+01 0.00000E+00
 -1        14-8.00000E+00-3.75000E+01 0.00000E+00
 -1        15-2.50000E+01-3.75000E+01 0.00000E+00
 -1        16-2.50000E+01-8.00000E+00 0.00000E+00
 -1        17-2.50000E+01 8.00000E+00 0.00000E+00
 -1        18-2.50000E+01 3.75000E+01 0.00000E+00
 -1        19-8.00000E+00 3.75000E+01 0.00000E+00
 -1        20 8.00000E+00 3.75000E+01 0.00000E+00
 -1        21 7.30740E+00 7.30740E+00 0.00000E+00
 -1        22 6.68406E+00 6.68406E+00 0.00000E+00
 -1        23 6.12305E+00 6.12305E+00 0.00000E+00
 -1        24 5.61815E+00 5.61815E+00 0.00000E+00
 -1        25 5.16373E+00 5.16373E+00 0.00000E+00
 -1        26 4.75476E+00 4.75476E+00 0.00000E+00
 -1        27 4.38668E+00 4.38668E+00 0.00000E+00
 -1        28 4.05541E+00 4.05541E+00 0.00000E+00
 -1        29 3.75727E+00 3.75727E+00 0.00000E+00
 -1        30 3.48895E+00 3.48895E+00 0.00000E+00
 -1        31 3.24745E+00 3.24745E+00 0.00000E+00
 -1        32 3.03011E+00 3.03011E+00 0.00000E+00
 -1        33 2.83449E+00 2.83449E+00 0.00000E+00
 -1        34 2.65844E+00 2.65844E+00 0.00000E+00
 -1        35 7.65370E+00 7.65370E+00 0.00000E+00
 -1        36 6.99573E+00 6.99573E+00 0.00000E+00
 -1        37 6.40356E+00 6.40356E+00 0.00000E+00
 -1        38 5.87060E+00 5.87060E+00 0.00000E+00
 -1        39 5.39094E+00 5.39094E+00 0.00000E+00
 -1        40 4.95925E+00 4.95925E+00 0.00000E+00
 -1        41 4.57072E+00 4.57072E+00 0.00000E+00
 -1        42 4.22105E+00 4.22105E+00 0.00000E+00
 -1        43 3.90634E+00 3.90634E+00 0.00000E+00
 -1        44 3.62311E+00 3.62311E+00 0.00000E+00
 -1        45 3.36820E+00 3.36820E+00 0.00000E+00
 -1        46 3.13878E+00 3.13878E+00 0.00000E+00
 -1        47 2.93230E+00 2.93230E+00 0.00000E+00
 -1        48 2.74647E+00 2.74647E+00 0.00000E+00
 -1        49 2.57922E+00 2.57922E+00 0.00000E+00
 -1        50 7.30740E+00-7.30740E+00 0.00000E+00
 -1        51 6.68406E+00-6.68406E+00 0.00000E+00
 -1        52 6.12305E+00-6.12305E+00 0.00000E+00
 -1        53 5.61815E+00-5.61815E+00 0.00000E+00
 -1        54 5.16373E+00-5.16373E+00 0.00000E+00
 -1        55 4.75476E+00-4.75476E+00 0.00000E+00
 -1        56 4.38668E+00-4.38668E+00 0.00000E+00
 -1        57 4.05541E+00-4.05541E+00 0.00000E+00
 -1        58 3.75727E+00-3.75727E+00 0.00000E+00
 -1        59 3.48895E+00-3.48895E+00 0.00000E+00
 -1        60 3.24745E+00-3.24745E+00 0.00000E+00
 -1        61 3.03011E+00-3.03011E+00 0.00000E+00
 -1        62 2.83449E+00-2.83449E+00 0.00000E+00
 -1        63 2.65844E+00-2.65844E+00 0.00000E+00
 -1        64 7.65370E+00-7.65370E+00 0.00000E+00
 -1        65 6.99573E+00-6.99573E+00 0.00000E+00
 -1        66 6.40356E+00-6.40356E+00 0.00000E+00
 -1        67 5.87060E+00-5.87060E+00 0.00000E+00
 -1        68 5.39094E+00-5.39094E+00 0.00000E+00
 -1        69 4.95925E+00-4.95925E+00 0.00000E+00
 -1        70 4.57072E+00-4.57072E+00 0.00000E+00
 -1        71 4.22105E+00-4.22105E+00 0.00000E+00
 -1        72 3.90634E+00-3.90634E+00 0.00000E+00
 -1        73 3.62311E+00-3.62311E+00 0.00000E+00
 -1        74 3.36820E+00-3.36820E+00 0.00000E+00
 -1        75 3.13878E+00-3.13878E+00 0.00000E+00
 -1        76 2.93230E+00-2.93230E+00 0.00000E+00
 -1        77 2.74647E+00-2.74647E+00 0.00000E+00
 -1        78 2.57922E+00-2.57922E+00 0.00000E+00
 -1        79-7.30740E+00-7.30740E+00 0.00000E+00
 -1        80-6.68406E+00-6.68406E+00 0.00000E+00
 -1        81-6.12305E+00-6.12305E+00 0.00000E+00
 -1        82-5.61815E+00-5.61815E+00 0.00000E+00
 -1        83-5.16373E+00-5.16373E+00 0.00000E+00
 -1        84-4.75476E+00-4.75476E+00 0.00000E+00
 -1        85-4.38668E+00-4.38668E+00 0.00000E+00
 -1        86-4.05541E+00-4.05541E+00 0.00000E+00
 -1        87-3.75727E+00-3.75727E+00 0.00000E+00
 -1        88-3.48895E+00-3.48895E+00 0.00000E+00
 -1        89-3.24745E+00-3.24745E+00 0.00000E+00
 -1        90-3.03011E+00-3.03011E+00 0.00000E+00
 -1        91-2.83449E+00-2.83449E+00 0.00000E+00
 -1        92-2.65844E+00-2.65844E+00 0.00000E+00
 -1        93-7.65370E+00-7.65370E+00 0.00000E+00
 -1        94-6.99573E+00-6.99573E+00 0.00000E+00
 -1        95-6.40356E+00-6.40356E+00 0.00000E+00
 -1        96-5.87060E+00-5.87060E+00 0.00000E+00
 -1        97-5.39094E+00-5.39094E+00 0.00000E+00
 -1        98-4.95925E+00-4.95925E+00 0.00000E+00
 -1        99-4.57072E+00-4.57072E+00 0.00000E+00
 -1       100-4.22105E+00-4.22105E+00 0.00000E+00
 -1       101-3.90634E+00-3.90634E+00 0.00000E+00
 -1       102-3.62311E+00-3.62311E+00 0.00000E+00
 -1       103-3.36820E+00-3.36820E+00 0.00000E+00
 -1       104-3.13878E+00-3.13878E+00 0.00000E+00
 -1       105-2.93230E+00-2.93230E+00 0.00000E+00
 -1       106-2.74647E+00-2.74647E+00 0.00000E+00
 -1       107-2.57922E+00-2.57922E+00 0.00000E+00
 -1       108-7.30740E+00 7.30740E+00 0.00000E+00
 -1       109-6.68406E+00 6.68406E+00 0.00000E+00
 -1       110-6.12305E+00 6.12305E+00 0.00000E+00
 -1       111-5.61815E+00 5.61815E+00 0.00000E+00
 -1       112-5.16373E+00 5.16373E+00 0.00000E+00
 -1       113-4.75476E+00 4.75476E+00 0.00000E+00
 -1       114-4.38668E+00 4.38668E+00 0.00000E+00
 -1       115-4.05541E+00 4.05541E+00 0.00000E+00
 -1       116-3.75727E+00 3.75727E+00 0.00000E+00
 -1       117-3.48895E+00 3.48895E+00 0.00000E+00
 -1       118-3.24745E+00 3.24745E+00 0.00000E+00
 -1       119-3.03011E+00 3.03011E+00 0.00000E+00
 -1       120-2.83449E+00 2.83449E+00 0.00000E+00
 -1       121-2.65844E+00 2.65844E+00 0.00000E+00
 -1       122-7.65370E+00 7.65370E+00 0.00000E+00
 -1       123-6.99573E+00 6.99573E+00 0.00000E+00
 -1       124-6.40356E+00 6.40356E+00 0.00000E+00
 -1       125-5.87060E+00 5.87060E+00 0.00000E+00
 -1       126-5.39094E+00 5.39094E+00 0.00000E+00
 -1       127-4.95925E+00 4.95925E+00 0.00000E+00
 -1       128-4.57072E+00 4.57072E+00 0.00000E+00
 -1       129-4.22105E+00 4.22105E+00 0.00000E+00
 -1       130-3.90634E+00 3.90634E+00 0.00000E+00
 -1       131-3.62311E+00 3.62311E+00 0.00000E+00
 -1       132-3.36820E+00 3.36820E+00 0.00000E+00
 -1       133-3.13878E+00 3.13878E+00 0.00000E+00
 -1       134-2.93230E+00 2.93230E+00 0.00000E+00
 -1       135-2.74647E+00 2.74647E+00 0.00000E+00
 -1       136-2.57922E+00 2.57922E+00 0.00000E+00
 -1       137 2.74763E+00 2.22498E+00 0.00000E+00
 -1       138 2.96515E+00 1.92559E+00 0.00000E+00
 -1       139 3.15018E+00 1.60510E+00 0.00000E+00
 -1       140 3.30071E+00 1.26702E+00 0.00000E+00
 -1       141 3.41506E+00 9.15064E-01 0.00000E+00
 -1       142 3.49201E+00 5.53079E-01 0.00000E+00
 -1       143 3.53069E+00 1.85036E-01 0.00000E+00
 -1       144 3.53069E+00-1.85036E-01 0.00000E+00
 -1       145 3.49201E+00-5.53079E-01 0.00000E+00
 -1       146 3.41506E+00-9.15064E-01 0.00000E+00
 -1       147 3.30071E+00-1.26702E+00 0.00000E+00
 -1       148 3.15018E+00-1.60510E+00 0.00000E+00
 -1       149 2.96515E+00-1.92559E+00 0.00000E+00
 -1       150 2.74763E+00-2.22498E+00 0.00000E+00
 -1       151 2.62741E+00 2.36573E+00 0.00000E+00
 -1       152 2.86031E+00 2.07813E+00 0.00000E+00
 -1       153 3.06186E+00 1.76777E+00 0.00000E+00
 -1       154 3.22987E+00 1.43803E+00 0.00000E+00
 -1       155 3.36249E+00 1.09254E+00 0.00000E+00
 -1       156 3.45827E+00 7.35079E-01 0.00000E+00
 -1       157 3.51617E+00 3.69564E-01 0.00000E+00
 -1       158 3.53553E+00-7.28188E-09 0.00000E+00
 -1       159 3.51617E+00-3.69564E-01 0.00000E+00
 -1       160 3.45827E+00-7.35079E-01 0.00000E+00
 -1       161 3.36249E+00-1.09254E+00 0.00000E+00
 -1       162 3.22987E+00-1.43803E+00 0.00000E+00
 -1       163 3.06186E+00-1.76777E+00 0.00000E+00
 -1       164 2.86031E+00-2.07813E+00 0.00000E+00
 -1       165 2.62741E+00-2.36573E+00 0.00000E+00
 -1       166 2.22498E+00-2.74763E+00 0.00000E+00
 -1       167 1.92559E+00-2.96515E+00 0.00000E+00
 -1       168 1.60510E+00-3.15018E+00 0.00000E+00
 -1       169 1.26702E+00-3.30071E+00 0.00000E+00
 -1       170 9.15064E-01-3.41506E+00 0.00000E+00
 -1       171 5.53079E-01-3.49201E+00 0.00000E+00
 -1       172 1.85036E-01-3.53069E+00 0.00000E+00
 -1       173-1.85036E-01-3.53069E+00 0.00000E+00
 -1       174-5.53079E-01-3.49201E+00 0.00000E+00
 -1       175-9.15064E-01-3.41506E+00 0.00000E+00
 -1       176-1.26702E+00-3.30071E+00 0.00000E+00
 -1       177-1.60510E+00-3.15018E+00 0.00000E+00
 -1       178-1.92559E+00-2.96515E+00 0.00000E+00
 -1       179-2.22498E+00-2.74763E+00 0.00000E+00
 -1       180 2.36573E+00-2.62741E+00 0.00000E+00
 -1       181 2.07813E+00-2.86031E+00 0.00000E+00
 -1       182 1.76777E+00-3.06186E+00 0.00000E+00
 -1       183 1.43803E+00-3.22987E+00 0.00000E+00
 -1       184 1.09254E+00-3.36249E+00 0.00000E+00
 -1       185 7.35079E-01-3.45827E+00 0.00000E+00
 -1       186 3.69564E-01-3.51617E+00 0.00000E+00
 -1       187-7.28188E-09-3.53553E+00 0.00000E+00
 -1       188-3.69564E-01-3.51617E+00 0.00000E+00
 -1       189-7.35079E-01-3.45827E+00 0.00000E+00
 -1       190-1.09254E+00-3.36249E+00 0.00000E+00
 -1       191-1.43803E+00-3.22987E+00 0.00000E+00
 -1       192-1.76777E+00-3.06186E+00 0.00000E+00
 -1       193-2.07813E+00-2.86031E+00 0.00000E+00
 -1       194-2.36573E+00-2.62741E+00 0.00000E+00
 -1       195-2.74763E+00-2.22498E+00 0.00000E+00
 -1       196-2.96515E+00-1.92559E+00 0.00000E+00
 -1       197-3.15018E+00-1.60510E+00 0.00000E+00
 -1       198-3.30071E+00-1.26702E+00 0.00000E+00
 -1       199-3.41506E+00-9.15064E-01 0.00000E+00
 -1       200-3.49201E+00-5.53079E-01 0.00000E+00
 -1       201-3.53069E+00-1.85036E-01 0.00000E+00
 -1       202-3.53069E+00 1.85036E-01 0.00000E+00
 -1       203-3.49201E+00 5.53079E-01 0.00000E+00
 -1       204-3.41506E+00 9.15064E-01 0.00000E+00
 -1       205-3.30071E+00 1.26702E+00 0.00000E+00
 -1       206-3.15018E+00 1.60510E+00 0.00000E+00
 -1       207-2.96515E+00 1.92559E+00 0.00000E+00
 -1       208-2.74763E+00 2.22498E+00 0.00000E+00
 -1       209-2.62741E+00-2.36573E+00 0.00000E+00
 -1       210-2.86031E+00-2.07813E+00 0.00000E+00
 -1       211-3.06186E+00-1.76777E+00 0.00000E+00
 -1       212-3.22987E+00-1.43803E+00 0.00000E+00
 -1       213-3.36249E+00-1.09254E+00 0.00000E+00
 -1       214-3.45827E+00-7.35079E-01 0.00000E+00
 -1       215-3.51617E+00-3.69564E-01 0.00000E+00
 -1       216-3.53553E+00 7.28188E-09 0.00000E+00
 -1       217-3.51617E+00 3.69564E-01 0.00000E+00
 -1       218-3.45827E+00 7.35079E-01 0.00000E+00
 -1       219-3.36249E+00 1.09254E+00 0.00000E+00
 -1       220-3.22987E+00 1.43803E+00 0.00000E+00
 -1       221-3.06186E+00 1.76777E+00 0.00000E+00
 -1       222-2.86031E+00 2.07813E+00 0.00000E+00
 -1       223-2.62741E+00 2.36573E+00 0.00000E+00
 -1       224-2.22498E+00 2.74763E+00 0.00000E+00
 -1       225-1.92559E+00 2.96515E+00 0.00000E+00
 -1       226-1.60510E+00 3.15018E+00 0.00000E+00
 -1       227-1.26702E+00 3.30071E+00 0.00000E+00
 -1       228-9.15064E-01 3.41506E+00 0.00000E+00
 -1       229-5.53079E-01 3.49201E+00 0.00000E+00
 -1       230-1.85036E-01 3.53069E+00 0.00000E+00
 -1       231 1.85036E-01 3.53069E+00 0.00000E+00
 -1       232 5.53079E-01 3.49201E+00 0.00000E+00
 -1       233 9.15064E-01 3.41506E+00 0.00000E+00
 -1       234 1.26702E+00 3.30071E+00 0.00000E+00
 -1       235 1.60510E+00 3.15018E+00 0.00000E+00
 -1       236 1.92559E+00 2.96515E+00 0.00000E+00
 -1       237 2.22498E+00 2.74763E+00 0.00000E+00
 -1       238-2.36573E+00 2.62741E+00 0.00000E+00
 -1       239-2.07813E+00 2.86031E+00 0.00000E+00
 -1       240-1.76777E+00 3.06186E+00 0.00000E+00
 -1       241-1.43803E+00 3.22987E+00 0.00000E+00
 -1       242-1.09254E+00 3.36249E+00 0.00000E+00
 -1       243-7.35079E-01 3.45827E+00 0.00000E+00
 -1       244-3.69564E-01 3.51617E+00 0.00000E+00
 -1       245 7.28188E-09 3.53553E+00 0.00000E+00
 -1       246 3.69564E-01 3.51617E+00 0.00000E+00
 -1       247 7.35079E-01 3.45827E+00 0.00000E+00
 -1       248 1.09254E+00 3.36249E+00 0.00000E+00
 -1       249 1.43803E+00 3.22987E+00 0.00000E+00
 -1       250 1.76777E+00 3.06186E+00 0.00000E+00
 -1       251 2.07813E+00 2.86031E+00 0.00000E+00
 -1       252 2.36573E+00 2.62741E+00 0.00000E+00
 -1       253 8.00000E+00 6.93333E+00 0.00000E+00
 -1       254 8.00000E+00 5.86667E+00 0.00000E+00
 -1       255 8.00000E+00 4.80000E+00 0.00000E+00
 -1       256 8.00000E+00 3.73333E+00 0.00000E+00
 -1       257 8.00000E+00 2.66667E+00 0.00000E+00
 -1       258 8.00000E+00 1.60000E+00 0.00000E+00
 -1       259 8.00000E+00 5.33333E-01 0.00000E+00
 -1       260 8.00000E+00-5.33333E-01 0.00000E+00
 -1       261 8.00000E+00-1.60000E+00 0.00000E+00
 -1       262 8.00000E+00-2.66667E+00 0.00000E+00
 -1       263 8.00000E+00-3.73333E+00 0.00000E+00
 -1       264 8.00000E+00-4.80000E+00 0.00000E+00
 -1       265 8.00000E+00-5.86667E+00 0.00000E+00
 -1       266 8.00000E+00-6.93333E+00 0.00000E+00
 -1       267 8.00000E+00 7.46667E+00 0.00000E+00
 -1       268 8.00000E+00 6.40000E+00 0.00000E+00
 -1       269 8.00000E+00 5.33333E+00 0.00000E+00
 -1       270 8.00000E+00 4.26667E+00 0.00000E+00
 -1       271 8.00000E+00 3.20000E+00 0.00000E+00
 -1       272 8.00000E+00 2.13333E+00 0.00000E+00
 -1       273 8.00000E+00 1.06667E+00 0.00000E+00
 -1       274 8.00000E+00 2.21778E-11 0.00000E+00
 -1       275 8.00000E+00-1.06667E+00 0.00000E+00
 -1       276 8.00000E+00-2.13333E+00 0.00000E+00
 -1       277 8.00000E+00-3.20000E+00 0.00000E+00
 -1       278 8.00000E+00-4.26667E+00 0.00000E+00
 -1       279 8.00000E+00-5.33333E+00 0.00000E+00
 -1       280 8.00000E+00-6.40000E+00 0.00000E+00
 -1       281 8.00000E+00-7.46667E+00 0.00000E+00
 -1       282 6.93333E+00-8.00000E+00 0.00000E+00
 -1       283 5.86667E+00-8.00000E+00 0.00000E+00
 -1       284 4.80000E+00-8.00000E+00 0.00000E+00
 -1       285 3.73333E+00-8.00000E+00 0.00000E+00
 -1       286 2.66667E+00-8.00000E+00 0.00000E+00
 -1       287 1.60000E+00-8.00000E+00 0.00000E+00
 -1       288 5.33333E-01-8.00000E+00 0.00000E+00
 -1       289-5.33333E-01-8.00000E+00 0.00000E+00
 -1       290-1.60000E+00-8.00000E+00 0.00000E+00
 -1       291-2.66667E+00-8.00000E+00 0.00000E+00
 -1       292-3.73333E+00-8.00000E+00 0.00000E+00
 -1       293-4.80000E+00-8.00000E+00 0.00000E+00
 -1       294-5.86667E+00-8.00000E+00 0.00000E+00
 -1       295-6.93333E+00-8.00000E+00 0.00000E+00
 -1       296 7.46667E+00-8.00000E+00 0.00000E+00
 -1       297 6.40000E+00-8.00000E+00 0.00000E+00
 -1       298 5.33333E+00-8.00000E+00 0.00000E+00
 -1       299 4.26667E+00-8.00000E+00 0.00000E+00
 -1       300 3.20000E+00-8.00000E+00 0.00000E+00
 -1       301 2.13333E+00-8.00000E+00 0.00000E+00
 -1       302 1.06667E+00-8.00000E+00 0.00000E+00
 -1       303 2.21778E-11-8.00000E+00 0.00000E+00
 -1       304-1.06667E+00-8.00000E+00 0.00000E+00
 -1       305-2.13333E+00-8.00000E+00 0.00000E+00
 -1       306-3.20000E+00-8.00000E+00 0.00000E+00
 -1       307-4.26667E+00-8.00000E+00 0.00000E+00
 -1       308-5.33333E+00-8.00000E+00 0.00000E+00
 -1       309-6.40000E+00-8.00000E+00 0.00000E+00
 -1       310-7.46667E+00-8.00000E+00 0.00000E+00
 -1       311-8.00000E+00-6.93333E+00 0.00000E+00
 -1       312-8.00000E+00-5.86667E+00 0.00000E+00
 -1       313-8.00000E+00-4.80000E+00 0.00000E+00
 -1       314-8.00000E+00-3.73333E+00 0.00000E+00
 -1       315-8.00000E+00-2.66667E+00 0.00000E+00
 -1       316-8.00000E+00-1.60000E+00 0.00000E+00
 -1       317-8.00000E+00-5.33333E-01 0.00000E+00
 -1       318-8.00000E+00 5.33333E-01 0.00000E+00
 -1       319-8.00000E+00 1.60000E+00 0.00000E+00
 -1       320-8.00000E+00 2.66667E+00 0.00000E+00
 -1       321-8.00000E+00 3.73333E+00 0.00000E+00
 -1       322-8.00000E+00 4.80000E+00 0.00000E+00
 -1       323-8.00000E+00 5.86667E+00 0.00000E+00
 -1       324-8.00000E+00 6.93333E+00 0.00000E+00
 -1       325-8.00000E+00-7.46667E+00 0.00000E+00
 -1       326-8.00000E+00-6.40000E+00 0.00000E+00
 -1       327-8.00000E+00-5.33333E+00 0.00000E+00
 -1       328-8.00000E+00-4.26667E+00 0.00000E+00
 -1       329-8.00000E+00-3.20000E+00 0.00000E+00
 -1       330-8.00000E+00-2.13333E+00 0.00000E+00
 -1       331-8.00000E+00-1.06667E+00 0.00000E+00
 -1       332-8.00000E+00-2.21778E-11 0.00000E+00
 -1       333-8.00000E+00 1.06667E+00 0.00000E+00
 -1       334-8.00000E+00 2.13333E+00 0.00000E+00
 -1       335-8.00000E+00 3.20000E+00 0.00000E+00
 -1       336-8.00000E+00 4.26667E+00 0.00000E+00
 -1       337-8.00000E+00 5.33333E+00 0.00000E+00
 -1       338-8.00000E+00 6.40000E+00 0.00000E+00
 -1       339-8.00000E+00 7.46667E+00 0.00000E+00
 -1       340-6.93333E+00 8.00000E+00 0.00000E+00
 -1       341-5.86667E+00 8.00000E+00 0.00000E+00
 -1       342-4.80000E+00 8.00000E+00 0.00000E+00
 -1       343-3.73333E+00 8.00000E+00 0.00000E+00
 -1       344-2.66667E+00 8.00000E+00 0.00000E+00
 -1       345-1.60000E+00 8.00000E+00 0.00000E+00
 -1       346-5.33333E-01 8.00000E+00 0.00000E+00
 -1       347 5.33333E-01 8.00000E+00 0.00000E+00
 -1       348 1.60000E+00 8.00000E+00 0.00000E+00
 -1       349 2.66667E+00 8.00000E+00 0.00000E+00
 -1       350 3.73333E+00 8.00000E+00 0.00000E+00
 -1       351 4.80000E+00 8.00000E+00 0.00000E+00
 -1       352 5.86667E+00 8.00000E+00 0.00000E+00
 -1       353 6.93333E+00 8.00000E+00 0.00000E+00
 -1       354-7.46667E+00 8.00000E+00 0.00000E+00
 -1       355-6.40000E+00 8.00000E+00 0.00000E+00
 -1       356-5.33333E+00 8.00000E+00 0.00000E+00
 -1       357-4.26667E+00 8.00000E+00 0.00000E+00
 -1       358-3.20000E+00 8.00000E+00 0.00000E+00
 -1       359-2.13333E+00 8.00000E+00 0.00000E+00
 -1       360-1.06667E+00 8.00000E+00 0.00000E+00
 -1       361-2.21778E-11 8.00000E+00 0.00000E+00
 -1       362 1.06667E+00 8.00000E+00 0.00000E+00
 -1       363 2.13333E+00 8.00000E+00 0.00000E+00
 -1       364 3.20000E+00 8.00000E+00 0.00000E+00
 -1       365 4.26667E+00 8.00000E+00 0.00000E+00
 -1       366 5.33333E+00 8.00000E+00 0.00000E+00
 -1       367 6.40000E+00 8.00000E+00 0.00000E+00
 -1       368 7.46667E+00 8.00000E+00 0.00000E+00
 -1       369 2.50000E+01 3.64828E+01 0.00000E+00
 -1       370 2.50000E+01 3.54655E+01 0.00000E+00
 -1       371 2.50000E+01 3.44483E+01 0.00000E+00
 -1       372 2.50000E+01 3.34310E+01 0.00000E+00
 -1       373 2.50000E+01 3.24138E+01 0.00000E+00
 -1       374 2.50000E+01 3.13966E+01 0.00000E+00
 -1       375 2.50000E+01 3.03793E+01 0.00000E+00
 -1       376 2.50000E+01 2.93621E+01 0.00000E+00
 -1       377 2.50000E+01 2.83448E+01 0.00000E+00
 -1       378 2.50000E+01 2.73276E+01 0.00000E+00
 -1       379 2.50000E+01 2.63103E+01 0.00000E+00
 -1       380 2.50000E+01 2.52931E+01 0.00000E+00
 -1       381 2.50000E+01 2.42759E+01 0.00000E+00
 -1       382 2.50000E+01 2.32586E+01 0.00000E+00
 -1       383 2.50000E+01 2.22414E+01 0.00000E+00
 -1       384 2.50000E+01 2.12241E+01 0.00000E+00
 -1       385 2.50000E+01 2.02069E+01 0.00000E+00
 -1       386 2.50000E+01 1.91897E+01 0.00000E+00
 -1       387 2.50000E+01 1.81724E+01 0.00000E+00
 -1       388 2.50000E+01 1.71552E+01 0.00000E+00
 -1       389 2.50000E+01 1.61379E+01 0.00000E+00
 -1       390 2.50000E+01 1.51207E+01 0.00000E+00
 -1       391 2.50000E+01 1.41034E+01 0.00000E+00
 -1       392 2.50000E+01 1.30862E+01 0.00000E+00
 -1       393 2.50000E+01 1.20690E+01 0.00000E+00
 -1       394 2.50000E+01 1.10517E+01 0.00000E+00
 -1       395 2.50000E+01 1.00345E+01 0.00000E+00
 -1       396 2.50000E+01 9.01724E+00 0.00000E+00
 -1       397 2.50000E+01 3.69914E+01 0.00000E+00
 -1       398 2.50000E+01 3.59741E+01 0.00000E+00
 -1       399 2.50000E+01 3.49569E+01 0.00000E+00
 -1       400 2.50000E+01 3.39397E+01 0.00000E+00
 -1       401 2.50000E+01 3.29224E+01 0.00000E+00
 -1       402 2.50000E+01 3.19052E+01 0.00000E+00
 -1       403 2.50000E+01 3.08879E+01 0.00000E+00
 -1       404 2.50000E+01 2.98707E+01 0.00000E+00
 -1       405 2.50000E+01 2.88534E+01 0.00000E+00
 -1       406 2.50000E+01 2.78362E+01 0.00000E+00
 -1       407 2.50000E+01 2.68190E+01 0.00000E+00
 -1       408 2.50000E+01 2.58017E+01 0.00000E+00
 -1       409 2.50000E+01 2.47845E+01 0.00000E+00
 -1       410 2.50000E+01 2.37672E+01 0.00000E+00
 -1       411 2.50000E+01 2.27500E+01 0.00000E+00
 -1       412 2.50000E+01 2.17328E+01 0.00000E+00
 -1       413 2.50000E+01 2.07155E+01 0.00000E+00
 -1       414 2.50000E+01 1.96983E+01 0.00000E+00
 -1       415 2.50000E+01 1.86810E+01 0.00000E+00
 -1       416 2.50000E+01 1.76638E+01 0.00000E+00
 -1       417 2.50000E+01 1.66466E+01 0.00000E+00
 -1       418 2.50000E+01 1.56293E+01 0.00000E+00
 -1       419 2.50000E+01 1.46121E+01 0.00000E+00
 -1       420 2.50000E+01 1.35948E+01 0.00000E+00
 -1       421 2.50000E+01 1.25776E+01 0.00000E+00
 -1       422 2.50000E+01 1.15603E+01 0.00000E+00
 -1       423 2.50000E+01 1.05431E+01 0.00000E+00
 -1       424 2.50000E+01 9.52586E+00 0.00000E+00
 -1       425 2.50000E+01 8.50862E+00 0.00000E+00
 -1       426 2.50000E+01 6.93333E+00 0.00000E+00
 -1       427 2.50000E+01 5.86667E+00 0.00000E+00
 -1       428 2.50000E+01 4.80000E+00 0.00000E+00
 -1       429 2.50000E+01 3.73333E+00 0.00000E+00
 -1       430 2.50000E+01 2.66667E+00 0.00000E+00
 -1       431 2.50000E+01 1.60000E+00 0.00000E+00
 -1       432 2.50000E+01 5.33333E-01 0.00000E+00
 -1       433 2.50000E+01-5.33333E-01 0.00000E+00
 -1       434 2.50000E+01-1.60000E+00 0.00000E+00
 -1       435 2.50000E+01-2.66667E+00 0.00000E+00
 -1       436 2.50000E+01-3.73333E+00 0.00000E+00
 -1       437 2.50000E+01-4.80000E+00 0.00000E+00
 -1       438 2.50000E+01-5.86667E+00 0.00000E+00
 -1       439 2.50000E+01-6.93333E+00 0.00000E+00
 -1       440 2.50000E+01 7.46667E+00 0.00000E+00
 -1       441 2.50000E+01 6.40000E+00 0.00000E+00
 -1       442 2.50000E+01 5.33333E+00 0.00000E+00
 -1       443 2.50000E+01 4.26667E+00 0.00000E+00
 -1       444 2.50000E+01 3.20000E+00 0.00000E+00
 -1       445 2.50000E+01 2.13333E+00 0.00000E+00
 -1       446 2.50000E+01 1.06667E+00 0.00000E+00
 -1       447 2.50000E+01 2.21778E-11 0.00000E+00
 -1       448 2.50000E+01-1.06667E+00 0.00000E+00
 -1       449 2.50000E+01-2.13333E+00 0.00000E+00
 -1       450 2.50000E+01-3.20000E+00 0.00000E+00
 -1       451 2.50000E+01-4.26667E+00 0.00000E+00
 -1       452 2.50000E+01-5.33333E+00 0.00000E+00
 -1       453 2.50000E+01-6.40000E+00 0.00000E+00
 -1       454 2.50000E+01-7.46667E+00 0.00000E+00
 -1       455 2.50000E+01-9.01724E+00 0.00000E+00
 -1       456 2.50000E+01-1.00345E+01 0.00000E+00
 -1       457 2.50000E+01-1.10517E+01 0.00000E+00
 -1       458 2.50000E+01-1.20690E+01 0.00000E+00
 -1       459 2.50000E+01-1.30862E+01 0.00000E+00
 -1       460 2.50000E+01-1.41034E+01 0.00000E+00
 -1       461 2.50000E+01-1.51207E+01 0.00000E+00
 -1       462 2.50000E+01-1.61379E+01 0.00000E+00
 -1       463 2.50000E+01-1.71552E+01 0.00000E+00
 -1       464 2.50000E+01-1.81724E+01 0.00000E+00
 -1       465 2.50000E+01-1.91897E+01 0.00000E+00
 -1       466 2.50000E+01-2.02069E+01 0.00000E+00
 -1       467 2.50000E+01-2.12241E+01 0.00000E+00
 -1       468 2.50000E+01-2.22414E+01 0.00000E+00
 -1       469 2.50000E+01-2.32586E+01 0.00000E+00
 -1       470 2.50000E+01-2.42759E+01 0.00000E+00
 -1       471 2.50000E+01-2.52931E+01 0.00000E+00
 -1       472 2.50000E+01-2.63103E+01 0.00000E+00
 -1       473 2.50000E+01-2.73276E+01 0.00000E+00
 -1       474 2.50000E+01-2.83448E+01 0.00000E+00
 -1       475 2.50000E+01-2.93621E+01 0.00000E+00
 -1       476 2.50000E+01-3.03793E+01 0.00000E+00
 -1       477 2.50000E+01-3.13966E+01 0.00000E+00
 -1       478 2.50000E+01-3.24138E+01 0.00000E+00
 -1       479 2.50000E+01-3.34310E+01 0.00000E+00
 -1       480 2.50000E+01-3.44483E+01 0.00000E+00
 -1       481 2.50000E+01-3.54655E+01 0.00000E+00
 -1       482 2.50000E+01-3.64828E+01 0.00000E+00
 -1       483 2.50000E+01-8.50862E+00 0.00000E+00
 -1       484 2.50000E+01-9.52586E+00 0.00000E+00
 -1       485 2.50000E+01-1.05431E+01 0.00000E+00
 -1       486 2.50000E+01-1.15603E+01 0.00000E+00
 -1       487 2.50000E+01-1.25776E+01 0.00000E+00
 -1       488 2.50000E+01-1.35948E+01 0.00000E+00
 -1       489 2.50000E+01-1.46121E+01 0.00000E+00
 -1       490 2.50000E+01-1.56293E+01 0.00000E+00
 -1       491 2.50000E+01-1.66466E+01 0.00000E+00
 -1       492 2.50000E+01-1.76638E+01 0.00000E+00
 -1       493 2.50000E+01-1.86810E+01 0.00000E+00
 -1       494 2.50000E+01-1.96983E+01 0.00000E+00
 -1       495 2.50000E+01-2.07155E+01 0.00000E+00
 -1       496 2.50000E+01-2.17328E+01 0.00000E+00
 -1       497 2.50000E+01-2.27500E+01 0.00000E+00
 -1       498 2.50000E+01-2.37672E+01 0.00000E+00
 -1       499 2.50000E+01-2.47845E+01 0.00000E+00
 -1       500 2.50000E+01-2.58017E+01 0.00000E+00
 -1       501 2.50000E+01-2.68190E+01 0.00000E+00
 -1       502 2.50000E+01-2.78362E+01 0.00000E+00
 -1       503 2.50000E+01-2.88534E+01 0.00000E+00
 -1       504 2.50000E+01-2.98707E+01 0.00000E+00
 -1       505 2.50000E+01-3.08879E+01 0.00000E+00
 -1       506 2.50000E+01-3.19052E+01 0.00000E+00
 -1       507 2.50000E+01-3.29224E+01 0.00000E+00
 -1       508 2.50000E+01-3.39397E+01 0.00000E+00
 -1       509 2.50000E+01-3.49569E+01 0.00000E+00
 -1       510 2.50000E+01-3.59741E+01 0.00000E+00
 -1       511 2.50000E+01-3.69914E+01 0.00000E+00
 -1       512 2.39375E+01-3.75000E+01 0.00000E+00
 -1       513 2.28750E+01-3.75000E+01 0.00000E+00
 -1       514 2.18125E+01-3.75000E+01 0.00000E+00
 -1       515 2.07500E+01-3.75000E+01 0.00000E+00
 -1       516 1.96875E+01-3.75000E+01 0.00000E+00
 -1       517 1.86250E+01-3.75000E+01 0.00000E+00
 -1       518 1.75625E+01-3.75000E+01 0.00000E+00
 -1       519 1.65000E+01-3.75000E+01 0.00000E+00
 -1       520 1.54375E+01-3.75000E+01 0.00000E+00
 -1       521 1.43750E+01-3.75000E+01 0.00000E+00
 -1       522 1.33125E+01-3.75000E+01 0.00000E+00
 -1       523 1.22500E+01-3.75000E+01 0.00000E+00
 -1       524 1.11875E+01-3.75000E+01 0.00000E+00
 -1       525 1.01250E+01-3.75000E+01 0.00000E+00
 -1       526 9.06250E+00-3.75000E+01 0.00000E+00
 -1       527 2.44688E+01-3.75000E+01 0.00000E+00
 -1       528 2.34062E+01-3.75000E+01 0.00000E+00
 -1       529 2.23438E+01-3.75000E+01 0.00000E+00
 -1       530 2.12812E+01-3.75000E+01 0.00000E+00
 -1       531 2.02188E+01-3.75000E+01 0.00000E+00
 -1       532 1.91562E+01-3.75000E+01 0.00000E+00
 -1       533 1.80938E+01-3.75000E+01 0.00000E+00
 -1       534 1.70312E+01-3.75000E+01 0.00000E+00
 -1       535 1.59688E+01-3.75000E+01 0.00000E+00
 -1       536 1.49062E+01-3.75000E+01 0.00000E+00
 -1       537 1.38438E+01-3.75000E+01 0.00000E+00
 -1       538 1.27812E+01-3.75000E+01 0.00000E+00
 -1       539 1.17188E+01-3.75000E+01 0.00000E+00
 -1       540 1.06562E+01-3.75000E+01 0.00000E+00
 -1       541 9.59375E+00-3.75000E+01 0.00000E+00
 -1       542 8.53125E+00-3.75000E+01 0.00000E+00
 -1       543 6.93333E+00-3.75000E+01 0.00000E+00
 -1       544 5.86667E+00-3.75000E+01 0.00000E+00
 -1       545 4.80000E+00-3.75000E+01 0.00000E+00
 -1       546 3.73333E+00-3.75000E+01 0.00000E+00
 -1       547 2.66667E+00-3.75000E+01 0.00000E+00
 -1       548 1.60000E+00-3.75000E+01 0.00000E+00
 -1       549 5.33333E-01-3.75000E+01 0.00000E+00
 -1       550-5.33333E-01-3.75000E+01 0.00000E+00
 -1       551-1.60000E+00-3.75000E+01 0.00000E+00
 -1       552-2.66667E+00-3.75000E+01 0.00000E+00
 -1       553-3.73333E+00-3.75000E+01 0.00000E+00
 -1       554-4.80000E+00-3.75000E+01 0.00000E+00
 -1       555-5.86667E+00-3.75000E+01 0.00000E+00
 -1       556-6.93333E+00-3.75000E+01 0.00000E+00
 -1       557 7.46667E+00-3.75000E+01 0.00000E+00
 -1       558 6.40000E+00-3.75000E+01 0.00000E+00
 -1       559 5.33333E+00-3.75000E+01 0.00000E+00
 -1       560 4.26667E+00-3.75000E+01 0.00000E+00
 -1       561 3.20000E+00-3.75000E+01 0.00000E+00
 -1       562 2.13333E+00-3.75000E+01 0.00000E+00
 -1       563 1.06667E+00-3.75000E+01 0.00000E+00
 -1       564 2.21778E-11-3.75000E+01 0.00000E+00
 -1       565-1.06667E+00-3.75000E+01 0.00000E+00
 -1       566-2.13333E+00-3.75000E+01 0.00000E+00
 -1       567-3.20000E+00-3.75000E+01 0.00000E+00
 -1       568-4.26667E+00-3.75000E+01 0.00000E+00
 -1       569-5.33333E+00-3.75000E+01 0.00000E+00
 -1       570-6.40000E+00-3.75000E+01 0.00000E+00
 -1       571-7.46667E+00-3.75000E+01 0.00000E+00
 -1       572-9.06250E+00-3.75000E+01 0.00000E+00
 -1       573-1.01250E+01-3.75000E+01 0.00000E+00
 -1       574-1.11875E+01-3.75000E+01 0.00000E+00
 -1       575-1.22500E+01-3.75000E+01 0.00000E+00
 -1       576-1.33125E+01-3.75000E+01 0.00000E+00
 -1       577-1.43750E+01-3.75000E+01 0.00000E+00
 -1       578-1.54375E+01-3.75000E+01 0.00000E+00
 -1       579-1.65000E+01-3.75000E+01 0.00000E+00
 -1       580-1.75625E+01-3.75000E+01 0.00000E+00
 -1       581-1.86250E+01-3.75000E+01 0.00000E+00
 -1       582-1.96875E+01-3.75000E+01 0.00000E+00