    1C
    1U curvedbeam.inp                                                   
    1UUSER                                                              
    1UDATE              04.december.2021                                
    1UTIME              09:11:26                                        
    1UHOST                                                              
    1UPGM               CalculiX                                        
    1UVERSION           Version 2.16                             
    1UCOMPILETIME       Mon, Jan 20, 2020 12:54:24 AM                    
    1UDIR                                                               
    1UDBN                                                               
    1UMAT    1STEEL                                                     
    2C                         12517                                     1
 -1         1 0.00000E+00-5.08000E+01-9.52500E+00
 -1         2 0.00000E+00-1.52400E+02-9.52500E+00
 -1         3 9.33150E-15 1.52400E+02-9.52500E+00
 -1         4 3.11050E-15 5.08000E+01-9.52500E+00
 -1         5 0.00000E+00-5.08000E+01 9.52500E+00
 -1         6 0.00000E+00-1.52400E+02 9.52500E+00
 -1         7 9.33150E-15 1.52400E+02 9.52500E+00
 -1         8 3.11050E-15 5.08000E+01 9.52500E+00
 -1         9 0.00000E+00-5.64444E+01-9.52500E+00
 -1        10 0.00000E+00-6.20889E+01-9.52500E+00
 -1        11 0.00000E+00-6.77333E+01-9.52500E+00
 -1        12 0.00000E+00-7.33778E+01-9.52500E+00
 -1        13 0.00000E+00-7.90222E+01-9.52500E+00
 -1        14 0.00000E+00-8.46667E+01-9.52500E+00
 -1        15 0.00000E+00-9.03111E+01-9.52500E+00
 -1        16 0.00000E+00-9.59556E+01-9.52500E+00
 -1        17 0.00000E+00-1.01600E+02-9.52500E+00
 -1        18 0.00000E+00-1.07244E+02-9.52500E+00
 -1        19 0.00000E+00-1.12889E+02-9.52500E+00
 -1        20 0.00000E+00-1.18533E+02-9.52500E+00
 -1        21 0.00000E+00-1.24178E+02-9.52500E+00
 -1        22 0.00000E+00-1.29822E+02-9.52500E+00
 -1        23 0.00000E+00-1.35467E+02-9.52500E+00
 -1        24 0.00000E+00-1.41111E+02-9.52500E+00
 -1        25 0.00000E+00-1.46756E+02-9.52500E+00
 -1        26 0.00000E+00-5.36222E+01-9.52500E+00
 -1        27 0.00000E+00-5.92667E+01-9.52500E+00
 -1        28 0.00000E+00-6.49111E+01-9.52500E+00
 -1        29 0.00000E+00-7.05556E+01-9.52500E+00
 -1        30 0.00000E+00-7.62000E+01-9.52500E+00
 -1        31 0.00000E+00-8.18444E+01-9.52500E+00
 -1        32 0.00000E+00-8.74889E+01-9.52500E+00
 -1        33 0.00000E+00-9.31333E+01-9.52500E+00
 -1        34 0.00000E+00-9.87778E+01-9.52500E+00
 -1        35 0.00000E+00-1.04422E+02-9.52500E+00
 -1        36 0.00000E+00-1.10067E+02-9.52500E+00
 -1        37 0.00000E+00-1.15711E+02-9.52500E+00
 -1        38 0.00000E+00-1.21356E+02-9.52500E+00
 -1        39 0.00000E+00-1.27000E+02-9.52500E+00
 -1        40 0.00000E+00-1.32644E+02-9.52500E+00
 -1        41 0.00000E+00-1.38289E+02-9.52500E+00
 -1        42 0.00000E+00-1.43933E+02-9.52500E+00
 -1        43 0.00000E+00-1.49578E+02-9.52500E+00
 -1        44 1.98922E+01-1.51096E+02-9.52500E+00
 -1        45 3.94440E+01-1.47207E+02-9.52500E+00
 -1        46 5.83210E+01-1.40799E+02-9.52500E+00
 -1        47 7.62000E+01-1.31982E+02-9.52500E+00
 -1        48 9.27752E+01-1.20907E+02-9.52500E+00
 -1        49 1.07763E+02-1.07763E+02-9.52500E+00
 -1        50 1.20907E+02-9.27752E+01-9.52500E+00
 -1        51 1.31982E+02-7.62000E+01-9.52500E+00
 -1        52 1.40799E+02-5.83210E+01-9.52500E+00
 -1        53 1.47207E+02-3.94440E+01-9.52500E+00
 -1        54 1.51096E+02-1.98922E+01-9.52500E+00
 -1        55 1.52400E+02 7.00097E-07-9.52500E+00
 -1        56 1.51096E+02 1.98922E+01-9.52500E+00
 -1        57 1.47207E+02 3.94440E+01-9.52500E+00
 -1        58 1.40799E+02 5.83210E+01-9.52500E+00
 -1        59 1.31982E+02 7.62000E+01-9.52500E+00
 -1        60 1.20907E+02 9.27752E+01-9.52500E+00
 -1        61 1.07763E+02 1.07763E+02-9.52500E+00
 -1        62 9.27752E+01 1.20907E+02-9.52500E+00
 -1        63 7.62000E+01 1.31982E+02-9.52500E+00
 -1        64 5.83210E+01 1.40799E+02-9.52500E+00
 -1        65 3.94440E+01 1.47207E+02-9.52500E+00
 -1        66 1.98922E+01 1.51096E+02-9.52500E+00
 -1        67 9.96744E+00-1.52074E+02-9.52500E+00
 -1        68 2.97318E+01-1.49472E+02-9.52500E+00
 -1        69 4.89874E+01-1.44312E+02-9.52500E+00
 -1        70 6.74048E+01-1.36683E+02-9.52500E+00
 -1        71 8.46689E+01-1.26716E+02-9.52500E+00
 -1        72 1.00484E+02-1.14580E+02-9.52500E+00
 -1        73 1.14580E+02-1.00484E+02-9.52500E+00
 -1        74 1.26716E+02-8.46689E+01-9.52500E+00
 -1        75 1.36683E+02-6.74048E+01-9.52500E+00
 -1        76 1.44312E+02-4.89874E+01-9.52500E+00
 -1        77 1.49472E+02-2.97318E+01-9.52500E+00
 -1        78 1.52074E+02-9.96744E+00-9.52500E+00
 -1        79 1.52074E+02 9.96744E+00-9.52500E+00
 -1        80 1.49472E+02 2.97318E+01-9.52500E+00
 -1        81 1.44312E+02 4.89874E+01-9.52500E+00
 -1        82 1.36683E+02 6.74048E+01-9.52500E+00
 -1        83 1.26716E+02 8.46689E+01-9.52500E+00
 -1        84 1.14580E+02 1.00484E+02-9.52500E+00
 -1        85 1.00484E+02 1.14580E+02-9.52500E+00
 -1        86 8.46689E+01 1.26716E+02-9.52500E+00
 -1        87 6.74048E+01 1.36683E+02-9.52500E+00
 -1        88 4.89874E+01 1.44312E+02-9.52500E+00
 -1        89 2.97318E+01 1.49472E+02-9.52500E+00
 -1        90 9.96744E+00 1.52074E+02-9.52500E+00
 -1        91 8.98589E-15 1.46756E+02-9.52500E+00
 -1        92 8.64028E-15 1.41111E+02-9.52500E+00
 -1        93 8.29467E-15 1.35467E+02-9.52500E+00
 -1        94 7.94906E-15 1.29822E+02-9.52500E+00
 -1        95 7.60344E-15 1.24178E+02-9.52500E+00
 -1        96 7.25783E-15 1.18533E+02-9.52500E+00
 -1        97 6.91222E-15 1.12889E+02-9.52500E+00
 -1        98 6.56661E-15 1.07244E+02-9.52500E+00
 -1        99 6.22100E-15 1.01600E+02-9.52500E+00
 -1       100 5.87539E-15 9.59556E+01-9.52500E+00
 -1       101 5.52978E-15 9.03111E+01-9.52500E+00
 -1       102 5.18417E-15 8.46667E+01-9.52500E+00
 -1       103 4.83856E-15 7.90222E+01-9.52500E+00
 -1       104 4.49294E-15 7.33778E+01-9.52500E+00
 -1       105 4.14733E-15 6.77333E+01-9.52500E+00
 -1       106 3.80172E-15 6.20889E+01-9.52500E+00
 -1       107 3.45611E-15 5.64444E+01-9.52500E+00
 -1       108 9.15869E-15 1.49578E+02-9.52500E+00
 -1       109 8.81308E-15 1.43933E+02-9.52500E+00
 -1       110 8.46747E-15 1.38289E+02-9.52500E+00
 -1       111 8.12186E-15 1.32644E+02-9.52500E+00
 -1       112 7.77625E-15 1.27000E+02-9.52500E+00
 -1       113 7.43064E-15 1.21356E+02-9.52500E+00
 -1       114 7.08503E-15 1.15711E+02-9.52500E+00
 -1       115 6.73942E-15 1.10067E+02-9.52500E+00
 -1       116 6.39381E-15 1.04422E+02-9.52500E+00
 -1       117 6.04819E-15 9.87778E+01-9.52500E+00
 -1       118 5.70258E-15 9.31333E+01-9.52500E+00
 -1       119 5.35697E-15 8.74889E+01-9.52500E+00
 -1       120 5.01136E-15 8.18444E+01-9.52500E+00
 -1       121 4.66575E-15 7.62000E+01-9.52500E+00
 -1       122 4.32014E-15 7.05556E+01-9.52500E+00
 -1       123 3.97453E-15 6.49111E+01-9.52500E+00
 -1       124 3.62892E-15 5.92667E+01-9.52500E+00
 -1       125 3.28331E-15 5.36222E+01-9.52500E+00
 -1       126 6.63073E+00-5.03654E+01-9.52500E+00
 -1       127 1.31480E+01-4.90690E+01-9.52500E+00
 -1       128 1.94403E+01-4.69331E+01-9.52500E+00
 -1       129 2.54000E+01-4.39941E+01-9.52500E+00
 -1       130 3.09251E+01-4.03023E+01-9.52500E+00
 -1       131 3.59210E+01-3.59210E+01-9.52500E+00
 -1       132 4.03023E+01-3.09251E+01-9.52500E+00
 -1       133 4.39941E+01-2.54000E+01-9.52500E+00
 -1       134 4.69331E+01-1.94403E+01-9.52500E+00
 -1       135 4.90690E+01-1.31480E+01-9.52500E+00
 -1       136 5.03654E+01-6.63073E+00-9.52500E+00
 -1       137 5.08000E+01 2.39583E-07-9.52500E+00
 -1       138 5.03654E+01 6.63073E+00-9.52500E+00
 -1       139 4.90690E+01 1.31480E+01-9.52500E+00
 -1       140 4.69331E+01 1.94403E+01-9.52500E+00
 -1       141 4.39941E+01 2.54000E+01-9.52500E+00
 -1       142 4.03023E+01 3.09251E+01-9.52500E+00
 -1       143 3.59210E+01 3.59210E+01-9.52500E+00
 -1       144 3.09251E+01 4.03023E+01-9.52500E+00
 -1       145 2.54000E+01 4.39941E+01-9.52500E+00
 -1       146 1.94403E+01 4.69331E+01-9.52500E+00
 -1       147 1.31480E+01 4.90690E+01-9.52500E+00
 -1       148 6.63073E+00 5.03654E+01-9.52500E+00
 -1       149 3.32248E+00-5.06912E+01-9.52500E+00
 -1       150 9.91059E+00-4.98239E+01-9.52500E+00
 -1       151 1.63291E+01-4.81040E+01-9.52500E+00
 -1       152 2.24683E+01-4.55611E+01-9.52500E+00
 -1       153 2.82230E+01-4.22387E+01-9.52500E+00
 -1       154 3.34948E+01-3.81935E+01-9.52500E+00
 -1       155 3.81935E+01-3.34948E+01-9.52500E+00
 -1       156 4.22387E+01-2.82230E+01-9.52500E+00
 -1       157 4.55611E+01-2.24683E+01-9.52500E+00
 -1       158 4.81040E+01-1.63291E+01-9.52500E+00
 -1       159 4.98239E+01-9.91059E+00-9.52500E+00
 -1       160 5.06912E+01-3.32248E+00-9.52500E+00
 -1       161 5.06912E+01 3.32248E+00-9.52500E+00
 -1       162 4.98239E+01 9.91059E+00-9.52500E+00
 -1       163 4.81040E+01 1.63291E+01-9.52500E+00
 -1       164 4.55611E+01 2.24683E+01-9.52500E+00
 -1       165 4.22387E+01 2.82230E+01-9.52500E+00
 -1       166 3.81935E+01 3.34948E+01-9.52500E+00
 -1       167 3.34948E+01 3.81935E+01-9.52500E+00
 -1       168 2.82230E+01 4.22387E+01-9.52500E+00
 -1       169 2.24683E+01 4.55611E+01-9.52500E+00
 -1       170 1.63291E+01 4.81040E+01-9.52500E+00
 -1       171 9.91059E+00 4.98239E+01-9.52500E+00
 -1       172 3.32248E+00 5.06912E+01-9.52500E+00
 -1       173 0.00000E+00-5.64444E+01 9.52500E+00
 -1       174 0.00000E+00-6.20889E+01 9.52500E+00
 -1       175 0.00000E+00-6.77333E+01 9.52500E+00
 -1       176 0.00000E+00-7.33778E+01 9.52500E+00
 -1       177 0.00000E+00-7.90222E+01 9.52500E+00
 -1       178 0.00000E+00-8.46667E+01 9.52500E+00
 -1       179 0.00000E+00-9.03111E+01 9.52500E+00
 -1       180 0.00000E+00-9.59556E+01 9.52500E+00
 -1       181 0.00000E+00-1.01600E+02 9.52500E+00
 -1       182 0.00000E+00-1.07244E+02 9.52500E+00
 -1       183 0.00000E+00-1.12889E+02 9.52500E+00
 -1       184 0.00000E+00-1.18533E+02 9.52500E+00
 -1       185 0.00000E+00-1.24178E+02 9.52500E+00
 -1       186 0.00000E+00-1.29822E+02 9.52500E+00
 -1       187 0.00000E+00-1.35467E+02 9.52500E+00
 -1       188 0.00000E+00-1.41111E+02 9.52500E+00
 -1       189 0.00000E+00-1.46756E+02 9.52500E+00
 -1       190 0.00000E+00-5.36222E+01 9.52500E+00
 -1       191 0.00000E+00-5.92667E+01 9.52500E+00
 -1       192 0.00000E+00-6.49111E+01 9.52500E+00
 -1       193 0.00000E+00-7.05556E+01 9.52500E+00
 -1       194 0.00000E+00-7.62000E+01 9.52500E+00
 -1       195 0.00000E+00-8.18444E+01 9.52500E+00
 -1       196 0.00000E+00-8.74889E+01 9.52500E+00
 -1       197 0.00000E+00-9.31333E+01 9.52500E+00
 -1       198 0.00000E+00-9.87778E+01 9.52500E+00
 -1       199 0.00000E+00-1.04422E+02 9.52500E+00
 -1       200 0.00000E+00-1.10067E+02 9.52500E+00
 -1       201 0.00000E+00-1.15711E+02 9.52500E+00
 -1       202 0.00000E+00-1.21356E+02 9.52500E+00
 -1       203 0.00000E+00-1.27000E+02 9.52500E+00
 -1       204 0.00000E+00-1.32644E+02 9.52500E+00
 -1       205 0.00000E+00-1.38289E+02 9.52500E+00
 -1       206 0.00000E+00-1.43933E+02 9.52500E+00
 -1       207 0.00000E+00-1.49578E+02 9.52500E+00
 -1       208 1.98922E+01-1.51096E+02 9.52500E+00
 -1       209 3.94440E+01-1.47207E+02 9.52500E+00
 -1       210 5.83210E+01-1.40799E+02 9.52500E+00
 -1       211 7.62000E+01-1.31982E+02 9.52500E+00
 -1       212 9.27752E+01-1.20907E+02 9.52500E+00
 -1       213 1.07763E+02-1.07763E+02 9.52500E+00
 -1       214 1.20907E+02-9.27752E+01 9.52500E+00
 -1       215 1.31982E+02-7.62000E+01 9.52500E+00
 -1       216 1.40799E+02-5.83210E+01 9.52500E+00
 -1       217 1.47207E+02-3.94440E+01 9.52500E+00
 -1       218 1.51096E+02-1.98922E+01 9.52500E+00
 -1       219 1.52400E+02 7.00097E-07 9.52500E+00
 -1       220 1.51096E+02 1.98922E+01 9.52500E+00
 -1       221 1.47207E+02 3.94440E+01 9.52500E+00
 -1       222 1.40799E+02 5.83210E+01 9.52500E+00
 -1       223 1.31982E+02 7.62000E+01 9.52500E+00
 -1       224 1.20907E+02 9.27752E+01 9.52500E+00
 -1       225 1.07763E+02 1.07763E+02 9.52500E+00
 -1       226 9.27752E+01 1.20907E+02 9.52500E+00
 -1       227 7.62000E+01 1.31982E+02 9.52500E+00
 -1       228 5.83210E+01 1.40799E+02 9.52500E+00
 -1       229 3.94440E+01 1.47207E+02 9.52500E+00
 -1       230 1.98922E+01 1.51096E+02 9.52500E+00
 -1       231 9.96744E+00-1.52074E+02 9.52500E+00
 -1       232 2.97318E+01-1.49472E+02 9.52500E+00
 -1       233 4.89874E+01-1.44312E+02 9.52500E+00
 -1       234 6.74048E+01-1.36683E+02 9.52500E+00
 -1       235 8.46689E+01-1.26716E+02 9.52500E+00
 -1       236 1.00484E+02-1.14580E+02 9.52500E+00
 -1       237 1.14580E+02-1.00484E+02 9.52500E+00
 -1       238 1.26716E+02-8.46689E+01 9.52500E+00
 -1       239 1.36683E+02-6.74048E+01 9.52500E+00
 -1       240 1.44312E+02-4.89874E+01 9.52500E+00
 -1       241 1.49472E+02-2.97318E+01 9.52500E+00
 -1       242 1.52074E+02-9.96744E+00 9.52500E+00
 -1       243 1.52074E+02 9.96744E+00 9.52500E+00
 -1       244 1.49472E+02 2.97318E+01 9.52500E+00
 -1       245 1.44312E+02 4.89874E+01 9.52500E+00
 -1       246 1.36683E+02 6.74048E+01 9.52500E+00
 -1       247 1.26716E+02 8.46689E+01 9.52500E+00
 -1       248 1.14580E+02 1.00484E+02 9.52500E+00
 -1       249 1.00484E+02 1.14580E+02 9.52500E+00
 -1       250 8.46689E+01 1.26716E+02 9.52500E+00
 -1       251 6.74048E+01 1.36683E+02 9.52500E+00
 -1       252 4.89874E+01 1.44312E+02 9.52500E+00
 -1       253 2.97318E+01 1.49472E+02 9.52500E+00
 -1       254 9.96744E+00 1.52074E+02 9.52500E+00
 -1       255 8.98589E-15 1.46756E+02 9.52500E+00
 -1       256 8.64028E-15 1.41111E+02 9.52500E+00
 -1       257 8.29467E-15 1.35467E+02 9.52500E+00
 -1       258 7.94906E-15 1.29822E+02 9.52500E+00
 -1       259 7.60344E-15 1.24178E+02 9.52500E+00
 -1       260 7.25783E-15 1.18533E+02 9.52500E+00
 -1       261 6.91222E-15 1.12889E+02 9.52500E+00
 -1       262 6.56661E-15 1.07244E+02 9.52500E+00
 -1       263 6.22100E-15 1.01600E+02 9.52500E+00
 -1       264 5.87539E-15 9.59556E+01 9.52500E+00
 -1       265 5.52978E-15 9.03111E+01 9.52500E+00
 -1       266 5.18417E-15 8.46667E+01 9.52500E+00
 -1       267 4.83856E-15 7.90222E+01 9.52500E+00
 -1       268 4.49294E-15 7.33778E+01 9.52500E+00
 -1       269 4.14733E-15 6.77333E+01 9.52500E+00
 -1       270 3.80172E-15 6.20889E+01 9.52500E+00
 -1       271 3.45611E-15 5.64444E+01 9.52500E+00
 -1       272 9.15869E-15 1.49578E+02 9.52500E+00
 -1       273 8.81308E-15 1.43933E+02 9.52500E+00
 -1       274 8.46747E-15 1.38289E+02 9.52500E+00
 -1       275 8.12186E-15 1.32644E+02 9.52500E+00
 -1       276 7.77625E-15 1.27000E+02 9.52500E+00
 -1       277 7.43064E-15 1.21356E+02 9.52500E+00
 -1       278 7.08503E-15 1.15711E+02 9.52500E+00
 -1       279 6.73942E-15 1.10067E+02 9.52500E+00
 -1       280 6.39381E-15 1.04422E+02 9.52500E+00
 -1       281 6.04819E-15 9.87778E+01 9.52500E+00
 -1       282 5.70258E-15 9.31333E+01 9.52500E+00
 -1       283 5.35697E-15 8.74889E+01 9.52500E+00
 -1       284 5.01136E-15 8.18444E+01 9.52500E+00
 -1       285 4.66575E-15 7.62000E+01 9.52500E+00
 -1       286 4.32014E-15 7.05556E+01 9.52500E+00
 -1       287 3.97453E-15 6.49111E+01 9.52500E+00
 -1       288 3.62892E-15 5.92667E+01 9.52500E+00
 -1       289 3.28331E-15 5.36222E+01 9.52500E+00
 -1       290 6.63073E+00 5.03654E+01 9.52500E+00
 -1       291 1.31480E+01 4.90690E+01 9.52500E+00
 -1       292 1.94403E+01 4.69331E+01 9.52500E+00
 -1       293 2.54000E+01 4.39941E+01 9.52500E+00
 -1       294 3.09251E+01 4.03023E+01 9.52500E+00
 -1       295 3.59210E+01 3.59210E+01 9.52500E+00
 -1       296 4.03023E+01 3.09251E+01 9.52500E+00
 -1       297 4.39941E+01 2.54000E+01 9.52500E+00
 -1       298 4.69331E+01 1.94403E+01 9.52500E+00
 -1       299 4.90690E+01 1.31480E+01 9.52500E+00
 -1       300 5.03654E+01 6.63073E+00 9.52500E+00
 -1       301 5.08000E+01 2.39583E-07 9.52500E+00
 -1       302 5.03654E+01-6.63073E+00 9.52500E+00
 -1       303 4.90690E+01-1.31480E+01 9.52500E+00
 -1       304 4.69331E+01-1.94403E+01 9.52500E+00
 -1       305 4.39941E+01-2.54000E+01 9.52500E+00
 -1       306 4.03023E+01-3.09251E+01 9.52500E+00
 -1       307 3.59210E+01-3.59210E+01 9.52500E+00
 -1       308 3.09251E+01-4.03023E+01 9.52500E+00
 -1       309 2.54000E+01-4.39941E+01 9.52500E+00
 -1       310 1.94403E+01-4.69331E+01 9.52500E+00
 -1       311 1.31480E+01-4.90690E+01 9.52500E+00
 -1       312 6.63073E+00-5.03654E+01 9.52500E+00
 -1       313 3.32248E+00 5.06912E+01 9.52500E+00
 -1       314 9.91059E+00 4.98239E+01 9.52500E+00
 -1       315 1.63291E+01 4.81040E+01 9.52500E+00
 -1       316 2.24683E+01 4.55611E+01 9.52500E+00
 -1       317 2.82230E+01 4.22387E+01 9.52500E+00
 -1       318 3.34948E+01 3.81935E+01 9.52500E+00
 -1       319 3.81935E+01 3.34948E+01 9.52500E+00
 -1       320 4.22387E+01 2.82230E+01 9.52500E+00
 -1       321 4.55611E+01 2.24683E+01 9.52500E+00
 -1       322 4.81040E+01 1.63291E+01 9.52500E+00
 -1       323 4.98239E+01 9.91059E+00 9.52500E+00
 -1       324 5.06912E+01 3.32248E+00 9.52500E+00
 -1       325 5.06912E+01-3.32248E+00 9.52500E+00
 -1       326 4.98239E+01-9.91059E+00 9.52500E+00
 -1       327 4.81040E+01-1.63291E+01 9.52500E+00
 -1       328 4.55611E+01-2.24683E+01 9.52500E+00
 -1       329 4.22387E+01-2.82230E+01 9.52500E+00
 -1       330 3.81935E+01-3.34948E+01 9.52500E+00
 -1       331 3.34948E+01-3.81935E+01 9.52500E+00
 -1       332 2.82230E+01-4.22387E+01 9.52500E+00
 -1       333 2.24683E+01-4.55611E+01 9.52500E+00
 -1       334 1.63291E+01-4.81040E+01 9.52500E+00
 -1       335 9.91059E+00-4.98239E+01 9.52500E+00
 -1       336 3.32248E+00-5.06912E+01 9.52500E+00
 -1       337 0.00000E+00-5.08000E+01-6.35000E+00
 -1       338 0.00000E+00-5.08000E+01-3.17500E+00
 -1       339 0.00000E+00-5.08000E+01 0.00000E+00
 -1       340 0.00000E+00-5.08000E+01 3.17500E+00
 -1       341 0.00000E+00-5.08000E+01 6.35000E+00
 -1       342 0.00000E+00-5.08000E+01-7.93750E+00
 -1       343 0.00000E+00-5.08000E+01-4.76250E+00
 -1       344 0.00000E+00-5.08000E+01-1.58750E+00
 -1       345 0.00000E+00-5.08000E+01 1.58750E+00
 -1       346 0.00000E+00-5.08000E+01 4.76250E+00
 -1       347 0.00000E+00-5.08000E+01 7.93750E+00
 -1       348 0.00000E+00-1.52400E+02-6.35000E+00
 -1       349 0.00000E+00-1.52400E+02-3.17500E+00
 -1       350 0.00000E+00-1.52400E+02 0.00000E+00
 -1       351 0.00000E+00-1.52400E+02 3.17500E+00
 -1       352 0.00000E+00-1.52400E+02 6.35000E+00
 -1       353 0.00000E+00-1.52400E+02-7.93750E+00
 -1       354 0.00000E+00-1.52400E+02-4.76250E+00
 -1       355 0.00000E+00-1.52400E+02-1.58750E+00
 -1       356 0.00000E+00-1.52400E+02 1.58750E+00
 -1       357 0.00000E+00-1.52400E+02 4.76250E+00
 -1       358 0.00000E+00-1.52400E+02 7.93750E+00
 -1       359 9.33150E-15 1.52400E+02-6.35000E+00
 -1       360 9.33150E-15 1.52400E+02-3.17500E+00
 -1       361 9.33150E-15 1.52400E+02 0.00000E+00
 -1       362 9.33150E-15 1.52400E+02 3.17500E+00
 -1       363 9.33150E-15 1.52400E+02 6.35000E+00
 -1       364 9.33150E-15 1.52400E+02-7.93750E+00
 -1       365 9.33150E-15 1.52400E+02-4.76250E+00
 -1       366 9.33150E-15 1.52400E+02-1.58750E+00
 -1       367 9.33150E-15 1.52400E+02 1.58750E+00
 -1       368 9.33150E-15 1.52400E+02 4.76250E+00
 -1       369 9.33150E-15 1.52400E+02 7.93750E+00
 -1       370 3.11050E-15 5.08000E+01-6.35000E+00
 -1       371 3.11050E-15 5.08000E+01-3.17500E+00
 -1       372 3.11050E-15 5.08000E+01 0.00000E+00
 -1       373 3.11050E-15 5.08000E+01 3.17500E+00
 -1       374 3.11050E-15 5.08000E+01 6.35000E+00
 -1       375 3.11050E-15 5.08000E+01-7.93750E+00
 -1       376 3.11050E-15 5.08000E+01-4.76250E+00
 -1       377 3.11050E-15 5.08000E+01-1.58750E+00
 -1       378 3.11050E-15 5.08000E+01 1.58750E+00
 -1       379 3.11050E-15 5.08000E+01 4.76250E+00
 -1       380 3.11050E-15 5.08000E+01 7.93750E+00
 -1       381 7.36748E+00-5.59616E+01-9.52500E+00
 -1       382 1.46089E+01-5.45211E+01-9.52500E+00
 -1       383 2.16004E+01-5.21479E+01-9.52500E+00
 -1       384 2.82222E+01-4.88823E+01-9.52500E+00
 -1       385 3.43612E+01-4.47804E+01-9.52500E+00
 -1       386 3.99123E+01-3.99123E+01-9.52500E+00
 -1       387 4.47804E+01-3.43612E+01-9.52500E+00
 -1       388 4.88823E+01-2.82222E+01-9.52500E+00
 -1       389 5.21479E+01-2.16004E+01-9.52500E+00
 -1       390 5.45211E+01-1.46089E+01-9.52500E+00
 -1       391 5.59616E+01-7.36748E+00-9.52500E+00
 -1       392 5.64444E+01 2.65182E-07-9.52500E+00
 -1       393 5.59616E+01 7.36748E+00-9.52500E+00
 -1       394 5.45211E+01 1.46089E+01-9.52500E+00
 -1       395 5.21479E+01 2.16004E+01-9.52500E+00
 -1       396 4.88823E+01 2.82222E+01-9.52500E+00
 -1       397 4.47804E+01 3.43612E+01-9.52500E+00
 -1       398 3.99123E+01 3.99123E+01-9.52500E+00
 -1       399 3.43612E+01 4.47804E+01-9.52500E+00
 -1       400 2.82222E+01 4.88823E+01-9.52500E+00
 -1       401 2.16004E+01 5.21479E+01-9.52500E+00
 -1       402 1.46089E+01 5.45211E+01-9.52500E+00
 -1       403 7.36748E+00 5.59616E+01-9.52500E+00
 -1       404 8.10423E+00-6.15577E+01-9.52500E+00
 -1       405 1.60698E+01-5.99733E+01-9.52500E+00
 -1       406 2.37604E+01-5.73627E+01-9.52500E+00
 -1       407 3.10444E+01-5.37706E+01-9.52500E+00
 -1       408 3.77973E+01-4.92584E+01-9.52500E+00
 -1       409 4.39035E+01-4.39035E+01-9.52500E+00
 -1       410 4.92584E+01-3.77973E+01-9.52500E+00
 -1       411 5.37706E+01-3.10444E+01-9.52500E+00
 -1       412 5.73627E+01-2.37604E+01-9.52500E+00
 -1       413 5.99733E+01-1.60698E+01-9.52500E+00
 -1       414 6.15577E+01-8.10423E+00-9.52500E+00
 -1       415 6.20889E+01 2.90777E-07-9.52500E+00
 -1       416 6.15577E+01 8.10423E+00-9.52500E+00
 -1       417 5.99733E+01 1.60698E+01-9.52500E+00
 -1       418 5.73627E+01 2.37604E+01-9.52500E+00
 -1       419 5.37706E+01 3.10444E+01-9.52500E+00
 -1       420 4.92584E+01 3.77973E+01-9.52500E+00
 -1       421 4.39035E+01 4.39035E+01-9.52500E+00
 -1       422 3.77973E+01 4.92584E+01-9.52500E+00
 -1       423 3.10444E+01 5.37706E+01-9.52500E+00
 -1       424 2.37604E+01 5.73627E+01-9.52500E+00
 -1       425 1.60698E+01 5.99733E+01-9.52500E+00
 -1       426 8.10423E+00 6.15577E+01-9.52500E+00
 -1       427 8.84097E+00-6.71539E+01-9.52500E+00
 -1       428 1.75307E+01-6.54254E+01-9.52500E+00
 -1       429 2.59204E+01-6.25774E+01-9.52500E+00
 -1       430 3.38667E+01-5.86588E+01-9.52500E+00
 -1       431 4.12334E+01-5.37365E+01-9.52500E+00
 -1       432 4.78947E+01-4.78947E+01-9.52500E+00
 -1       433 5.37365E+01-4.12334E+01-9.52500E+00
 -1       434 5.86588E+01-3.38667E+01-9.52500E+00
 -1       435 6.25774E+01-2.59204E+01-9.52500E+00
 -1       436 6.54254E+01-1.75307E+01-9.52500E+00
 -1       437 6.71539E+01-8.84097E+00-9.52500E+00
 -1       438 6.77333E+01 3.16378E-07-9.52500E+00
 -1       439 6.71539E+01 8.84097E+00-9.52500E+00
 -1       440 6.54254E+01 1.75307E+01-9.52500E+00
 -1       441 6.25774E+01 2.59204E+01-9.52500E+00
 -1       442 5.86588E+01 3.38667E+01-9.52500E+00
 -1       443 5.37365E+01 4.12334E+01-9.52500E+00
 -1       444 4.78947E+01 4.78947E+01-9.52500E+00
 -1       445 4.12334E+01 5.37365E+01-9.52500E+00
 -1       446 3.38667E+01 5.86588E+01-9.52500E+00
 -1       447 2.59204E+01 6.25774E+01-9.52500E+00
 -1       448 1.75307E+01 6.54254E+01-9.52500E+00
 -1       449 8.84097E+00 6.71539E+01-9.52500E+00
 -1       450 9.57772E+00-7.27500E+01-9.52500E+00
 -1       451 1.89916E+01-7.08775E+01-9.52500E+00
 -1       452 2.80805E+01-6.77922E+01-9.52500E+00
 -1       453 3.66889E+01-6.35470E+01-9.52500E+00
 -1       454 4.46696E+01-5.82145E+01-9.52500E+00
 -1       455 5.18859E+01-5.18859E+01-9.52500E+00
 -1       456 5.82145E+01-4.46696E+01-9.52500E+00
 -1       457 6.35470E+01-3.66889E+01-9.52500E+00
 -1       458 6.77922E+01-2.80805E+01-9.52500E+00
 -1       459 7.08775E+01-1.89916E+01-9.52500E+00
 -1       460 7.27500E+01-9.57772E+00-9.52500E+00
 -1       461 7.33778E+01 3.41980E-07-9.52500E+00
 -1       462 7.27500E+01 9.57772E+00-9.52500E+00
 -1       463 7.08775E+01 1.89916E+01-9.52500E+00
 -1       464 6.77922E+01 2.80805E+01-9.52500E+00
 -1       465 6.35470E+01 3.66889E+01-9.52500E+00
 -1       466 5.82145E+01 4.46696E+01-9.52500E+00
 -1       467 5.18859E+01 5.18859E+01-9.52500E+00
 -1       468 4.46696E+01 5.82145E+01-9.52500E+00
 -1       469 3.66889E+01 6.35470E+01-9.52500E+00
 -1       470 2.80805E+01 6.77922E+01-9.52500E+00
 -1       471 1.89916E+01 7.08775E+01-9.52500E+00
 -1       472 9.57772E+00 7.27500E+01-9.52500E+00
 -1       473 1.03145E+01-7.83462E+01-9.52500E+00
 -1       474 2.04525E+01-7.63296E+01-9.52500E+00
 -1       475 3.02405E+01-7.30070E+01-9.52500E+00
 -1       476 3.95111E+01-6.84352E+01-9.52500E+00
 -1       477 4.81057E+01-6.26925E+01-9.52500E+00
 -1       478 5.58771E+01-5.58771E+01-9.52500E+00
 -1       479 6.26925E+01-4.81057E+01-9.52500E+00
 -1       480 6.84352E+01-3.95111E+01-9.52500E+00
 -1       481 7.30070E+01-3.02405E+01-9.52500E+00
 -1       482 7.63296E+01-2.04525E+01-9.52500E+00
 -1       483 7.83462E+01-1.03145E+01-9.52500E+00
 -1       484 7.90222E+01 3.67580E-07-9.52500E+00
 -1       485 7.83462E+01 1.03145E+01-9.52500E+00
 -1       486 7.63296E+01 2.04525E+01-9.52500E+00
 -1       487 7.30070E+01 3.02405E+01-9.52500E+00
 -1       488 6.84352E+01 3.95111E+01-9.52500E+00
 -1       489 6.26925E+01 4.81057E+01-9.52500E+00
 -1       490 5.58771E+01 5.58771E+01-9.52500E+00
 -1       491 4.81057E+01 6.26925E+01-9.52500E+00
 -1       492 3.95111E+01 6.84352E+01-9.52500E+00
 -1       493 3.02405E+01 7.30070E+01-9.52500E+00
 -1       494 2.04525E+01 7.63296E+01-9.52500E+00
 -1       495 1.03145E+01 7.83462E+01-9.52500E+00
 -1       496 1.10512E+01-8.39423E+01-9.52500E+00
 -1       497 2.19133E+01-8.17817E+01-9.52500E+00
 -1       498 3.24005E+01-7.82218E+01-9.52500E+00
 -1       499 4.23333E+01-7.33235E+01-9.52500E+00
 -1       500 5.15418E+01-6.71706E+01-9.52500E+00
 -1       501 5.98684E+01-5.98684E+01-9.52500E+00
 -1       502 6.71706E+01-5.15418E+01-9.52500E+00
 -1       503 7.33235E+01-4.23333E+01-9.52500E+00
 -1       504 7.82218E+01-3.24005E+01-9.52500E+00
 -1       505 8.17817E+01-2.19133E+01-9.52500E+00
 -1       506 8.39423E+01-1.10512E+01-9.52500E+00
 -1       507 8.46667E+01 3.93179E-07-9.52500E+00
 -1       508 8.39423E+01 1.10512E+01-9.52500E+00
 -1       509 8.17817E+01 2.19133E+01-9.52500E+00
 -1       510 7.82218E+01 3.24005E+01-9.52500E+00
 -1       511 7.33235E+01 4.23333E+01-9.52500E+00
 -1       512 6.71706E+01 5.15418E+01-9.52500E+00
 -1       513 5.98684E+01 5.98684E+01-9.52500E+00
 -1       514 5.15418E+01 6.71706E+01-9.52500E+00
 -1       515 4.23333E+01 7.33235E+01-9.52500E+00
 -1       516 3.24005E+01 7.82218E+01-9.52500E+00
 -1       517 2.19133E+01 8.17817E+01-9.52500E+00
 -1       518 1.10512E+01 8.39423E+01-9.52500E+00
 -1       519 1.17880E+01-8.95385E+01-9.52500E+00
 -1       520 2.33742E+01-8.72338E+01-9.52500E+00
 -1       521 3.45606E+01-8.34366E+01-9.52500E+00
 -1       522 4.51556E+01-7.82117E+01-9.52500E+00
 -1       523 5.49779E+01-7.16486E+01-9.52500E+00
 -1       524 6.38596E+01-6.38596E+01-9.52500E+00
 -1       525 7.16486E+01-5.49779E+01-9.52500E+00
 -1       526 7.82117E+01-4.51556E+01-9.52500E+00
 -1       527 8.34366E+01-3.45606E+01-9.52500E+00
 -1       528 8.72338E+01-2.33742E+01-9.52500E+00
 -1       529 8.95385E+01-1.17880E+01-9.52500E+00
 -1       530 9.03111E+01 4.18782E-07-9.52500E+00
 -1       531 8.95385E+01 1.17880E+01-9.52500E+00
 -1       532 8.72338E+01 2.33742E+01-9.52500E+00
 -1       533 8.34366E+01 3.45606E+01-9.52500E+00
 -1       534 7.82117E+01 4.51556E+01-9.52500E+00
 -1       535 7.16486E+01 5.49779E+01-9.52500E+00
 -1       536 6.38596E+01 6.38596E+01-9.52500E+00
 -1       537 5.49779E+01 7.16486E+01-9.52500E+00
 -1       538 4.51556E+01 7.82117E+01-9.52500E+00
 -1       539 3.45606E+01 8.34366E+01-9.52500E+00
 -1       540 2.33742E+01 8.72338E+01-9.52500E+00
 -1       541 1.17880E+01 8.95385E+01-9.52500E+00
 -1       542 1.25247E+01-9.51346E+01-9.52500E+00
 -1       543 2.48351E+01-9.26860E+01-9.52500E+00
 -1       544 3.67206E+01-8.86514E+01-9.52500E+00
 -1       545 4.79778E+01-8.30999E+01-9.52500E+00
 -1       546 5.84140E+01-7.61267E+01-9.52500E+00
 -1       547 6.78508E+01-6.78508E+01-9.52500E+00
 -1       548 7.61267E+01-5.84140E+01-9.52500E+00
 -1       549 8.31000E+01-4.79778E+01-9.52500E+00
 -1       550 8.86514E+01-3.67206E+01-9.52500E+00
 -1       551 9.26860E+01-2.48351E+01-9.52500E+00
 -1       552 9.51346E+01-1.25247E+01-9.52500E+00
 -1       553 9.59556E+01 4.44381E-07-9.52500E+00
 -1       554 9.51346E+01 1.25247E+01-9.52500E+00
 -1       555 9.26860E+01 2.48351E+01-9.52500E+00
 -1       556 8.86514E+01 3.67206E+01-9.52500E+00
 -1       557 8.30999E+01 4.79778E+01-9.52500E+00
 -1       558 7.61267E+01 5.84140E+01-9.52500E+00
 -1       559 6.78508E+01 6.78508E+01-9.52500E+00
 -1       560 5.84140E+01 7.61267E+01-9.52500E+00
 -1       561 4.79778E+01 8.30999E+01-9.52500E+00
 -1       562 3.67206E+01 8.86514E+01-9.52500E+00
 -1       563 2.48351E+01 9.26860E+01-9.52500E+00
 -1       564 1.25247E+01 9.51346E+01-9.52500E+00
 -1       565 1.32615E+01-1.00731E+02-9.52500E+00
 -1       566 2.62960E+01-9.81381E+01-9.52500E+00
 -1       567 3.88806E+01-9.38662E+01-9.52500E+00
 -1       568 5.08000E+01-8.79882E+01-9.52500E+00
 -1       569 6.18502E+01-8.06047E+01-9.52500E+00
 -1       570 7.18420E+01-7.18420E+01-9.52500E+00
 -1       571 8.06047E+01-6.18502E+01-9.52500E+00
 -1       572 8.79882E+01-5.08000E+01-9.52500E+00
 -1       573 9.38662E+01-3.88806E+01-9.52500E+00
 -1       574 9.81381E+01-2.62960E+01-9.52500E+00
 -1       575 1.00731E+02-1.32615E+01-9.52500E+00
 -1       576 1.01600E+02 4.69979E-07-9.52500E+00
 -1       577 1.00731E+02 1.32615E+01-9.52500E+00
 -1       578 9.81381E+01 2.62960E+01-9.52500E+00
 -1       579 9.38662E+01 3.88806E+01-9.52500E+00
 -1       580 8.79882E+01 5.08000E+01-9.52500E+00
 -1       581 8.06047E+01 6.18502E+01-9.52500E+00
 -1       582 7.18420E+01 7.18420E+01-9.52500E+00