    1C
    1UHash: hPrjhfSF, Date: 03/13/2022, Unit system: MM_TON_S_C         
    1UUSER                                                              
    1UDATE              13.march.2022                                   
    1UTIME              20:31:07                                        
    1UHOST                                                              
    1UPGM               CalculiX                                        
    1UVERSION           Version 2.19                             
    1UCOMPILETIME       Sat Dec 18 23:10:56     2021                    
    1UDIR                                                               
    1UDBN                                                               
    1UMAT    116MNCR5                                                   
    2C                         10119                                     1
 -1      4484 2.49962E+01 5.00000E+01-4.36310E-01
 -1      4485 2.50000E+01 5.00000E+01 1.53076E-15
 -1      4486 2.49962E+01 5.00000E+01 4.36310E-01
 -1      4487 2.49962E+01 0.00000E+00-4.36310E-01
 -1      4488 2.50000E+01 0.00000E+00 1.53076E-15
 -1      4489 2.49962E+01 0.00000E+00 4.36310E-01
 -1      4490 9.99848E+01 0.00000E+00-1.74524E+00
 -1      4491 1.00000E+02 0.00000E+00 6.12303E-15
 -1      4492 9.99848E+01 0.00000E+00 1.74524E+00
 -1      4493 9.99848E+01 5.00000E+01-1.74524E+00
 -1      4494 1.00000E+02 5.00000E+01 6.12303E-15
 -1      4495 9.99848E+01 5.00000E+01 1.74524E+00
 -1      4496 2.49962E+01 4.80000E+01-4.36310E-01
 -1      4497 2.50000E+01 4.80000E+01 1.53076E-15
 -1      4498 2.49962E+01 4.80000E+01 4.36310E-01
 -1      4499 2.49962E+01 4.60000E+01-4.36310E-01
 -1      4500 2.50000E+01 4.60000E+01 1.53076E-15
 -1      4501 2.49962E+01 4.60000E+01 4.36310E-01
 -1      4502 2.49962E+01 4.40000E+01-4.36310E-01
 -1      4503 2.50000E+01 4.40000E+01 1.53076E-15
 -1      4504 2.49962E+01 4.40000E+01 4.36310E-01
 -1      4505 2.49962E+01 4.20000E+01-4.36310E-01
 -1      4506 2.50000E+01 4.20000E+01 1.53076E-15
 -1      4507 2.49962E+01 4.20000E+01 4.36310E-01
 -1      4508 2.49962E+01 4.00000E+01-4.36310E-01
 -1      4509 2.50000E+01 4.00000E+01 1.53076E-15
 -1      4510 2.49962E+01 4.00000E+01 4.36310E-01
 -1      4511 2.49962E+01 3.80000E+01-4.36310E-01
 -1      4512 2.50000E+01 3.80000E+01 1.53076E-15
 -1      4513 2.49962E+01 3.80000E+01 4.36310E-01
 -1      4514 2.49962E+01 3.60000E+01-4.36310E-01
 -1      4515 2.50000E+01 3.60000E+01 1.53076E-15
 -1      4516 2.49962E+01 3.60000E+01 4.36310E-01
 -1      4517 2.49962E+01 3.40000E+01-4.36310E-01
 -1      4518 2.50000E+01 3.40000E+01 1.53076E-15
 -1      4519 2.49962E+01 3.40000E+01 4.36310E-01
 -1      4520 2.49962E+01 3.20000E+01-4.36310E-01
 -1      4521 2.50000E+01 3.20000E+01 1.53076E-15
 -1      4522 2.49962E+01 3.20000E+01 4.36310E-01
 -1      4523 2.49962E+01 3.00000E+01-4.36310E-01
 -1      4524 2.50000E+01 3.00000E+01 1.53076E-15
 -1      4525 2.49962E+01 3.00000E+01 4.36310E-01
 -1      4526 2.49962E+01 2.80000E+01-4.36310E-01
 -1      4527 2.50000E+01 2.80000E+01 1.53076E-15
 -1      4528 2.49962E+01 2.80000E+01 4.36310E-01
 -1      4529 2.49962E+01 2.60000E+01-4.36310E-01
 -1      4530 2.50000E+01 2.60000E+01 1.53076E-15
 -1      4531 2.49962E+01 2.60000E+01 4.36310E-01
 -1      4532 2.49962E+01 2.40000E+01-4.36310E-01
 -1      4533 2.50000E+01 2.40000E+01 1.53076E-15
 -1      4534 2.49962E+01 2.40000E+01 4.36310E-01
 -1      4535 2.49962E+01 2.20000E+01-4.36310E-01
 -1      4536 2.50000E+01 2.20000E+01 1.53076E-15
 -1      4537 2.49962E+01 2.20000E+01 4.36310E-01
 -1      4538 2.49962E+01 2.00000E+01-4.36310E-01
 -1      4539 2.50000E+01 2.00000E+01 1.53076E-15
 -1      4540 2.49962E+01 2.00000E+01 4.36310E-01
 -1      4541 2.49962E+01 1.80000E+01-4.36310E-01
 -1      4542 2.50000E+01 1.80000E+01 1.53076E-15
 -1      4543 2.49962E+01 1.80000E+01 4.36310E-01
 -1      4544 2.49962E+01 1.60000E+01-4.36310E-01
 -1      4545 2.50000E+01 1.60000E+01 1.53076E-15
 -1      4546 2.49962E+01 1.60000E+01 4.36310E-01
 -1      4547 2.49962E+01 1.40000E+01-4.36310E-01
 -1      4548 2.50000E+01 1.40000E+01 1.53076E-15
 -1      4549 2.49962E+01 1.40000E+01 4.36310E-01
 -1      4550 2.49962E+01 1.20000E+01-4.36310E-01
 -1      4551 2.50000E+01 1.20000E+01 1.53076E-15
 -1      4552 2.49962E+01 1.20000E+01 4.36310E-01
 -1      4553 2.49962E+01 1.00000E+01-4.36310E-01
 -1      4554 2.50000E+01 1.00000E+01 1.53076E-15
 -1      4555 2.49962E+01 1.00000E+01 4.36310E-01
 -1      4556 2.49962E+01 8.00000E+00-4.36310E-01
 -1      4557 2.50000E+01 8.00000E+00 1.53076E-15
 -1      4558 2.49962E+01 8.00000E+00 4.36310E-01
 -1      4559 2.49962E+01 6.00000E+00-4.36310E-01
 -1      4560 2.50000E+01 6.00000E+00 1.53076E-15
 -1      4561 2.49962E+01 6.00000E+00 4.36310E-01
 -1      4562 2.49962E+01 4.00000E+00-4.36310E-01
 -1      4563 2.50000E+01 4.00000E+00 1.53076E-15
 -1      4564 2.49962E+01 4.00000E+00 4.36310E-01
 -1      4565 2.49962E+01 2.00000E+00-4.36310E-01
 -1      4566 2.50000E+01 2.00000E+00 1.53076E-15
 -1      4567 2.49962E+01 2.00000E+00 4.36310E-01
 -1      4568 2.70209E+01 0.00000E+00-4.71651E-01
 -1      4569 2.70250E+01 0.00000E+00 1.65475E-15
 -1      4570 2.70209E+01 0.00000E+00 4.71651E-01
 -1      4571 2.89706E+01 0.00000E+00-5.05683E-01
 -1      4572 2.89750E+01 0.00000E+00 1.77415E-15
 -1      4573 2.89706E+01 0.00000E+00 5.05683E-01
 -1      4574 3.09203E+01 0.00000E+00-5.39716E-01
 -1      4575 3.09250E+01 0.00000E+00 1.89355E-15
 -1      4576 3.09203E+01 0.00000E+00 5.39716E-01
 -1      4577 3.29450E+01 0.00000E+00-5.75057E-01
 -1      4578 3.29500E+01 0.00000E+00 2.01754E-15
 -1      4579 3.29450E+01 0.00000E+00 5.75057E-01
 -1      4580 3.48947E+01 0.00000E+00-6.09089E-01
 -1      4581 3.49000E+01 0.00000E+00 2.13694E-15
 -1      4582 3.48947E+01 0.00000E+00 6.09089E-01
 -1      4583 3.68444E+01 0.00000E+00-6.43121E-01
 -1      4584 3.68500E+01 0.00000E+00 2.25634E-15
 -1      4585 3.68444E+01 0.00000E+00 6.43121E-01
 -1      4586 3.88691E+01 0.00000E+00-6.78462E-01
 -1      4587 3.88750E+01 0.00000E+00 2.38033E-15
 -1      4588 3.88691E+01 0.00000E+00 6.78462E-01
 -1      4589 4.08188E+01 0.00000E+00-7.12494E-01
 -1      4590 4.08250E+01 0.00000E+00 2.49973E-15
 -1      4591 4.08188E+01 0.00000E+00 7.12494E-01
 -1      4592 4.27685E+01 0.00000E+00-7.46527E-01
 -1      4593 4.27750E+01 0.00000E+00 2.61913E-15
 -1      4594 4.27685E+01 0.00000E+00 7.46527E-01
 -1      4595 4.47932E+01 0.00000E+00-7.81868E-01
 -1      4596 4.48000E+01 0.00000E+00 2.74312E-15
 -1      4597 4.47932E+01 0.00000E+00 7.81868E-01
 -1      4598 4.67429E+01 0.00000E+00-8.15900E-01
 -1      4599 4.67500E+01 0.00000E+00 2.86252E-15
 -1      4600 4.67429E+01 0.00000E+00 8.15900E-01
 -1      4601 4.86926E+01 0.00000E+00-8.49932E-01
 -1      4602 4.87000E+01 0.00000E+00 2.98192E-15
 -1      4603 4.86926E+01 0.00000E+00 8.49932E-01
 -1      4604 5.07173E+01 0.00000E+00-8.85273E-01
 -1      4605 5.07250E+01 0.00000E+00 3.10591E-15
 -1      4606 5.07173E+01 0.00000E+00 8.85273E-01
 -1      4607 5.26670E+01 0.00000E+00-9.19306E-01
 -1      4608 5.26750E+01 0.00000E+00 3.22531E-15
 -1      4609 5.26670E+01 0.00000E+00 9.19306E-01
 -1      4610 5.46167E+01 0.00000E+00-9.53338E-01
 -1      4611 5.46250E+01 0.00000E+00 3.34471E-15
 -1      4612 5.46167E+01 0.00000E+00 9.53338E-01
 -1      4613 5.66414E+01 0.00000E+00-9.88679E-01
 -1      4614 5.66500E+01 0.00000E+00 3.46870E-15
 -1      4615 5.66414E+01 0.00000E+00 9.88679E-01
 -1      4616 5.85911E+01 0.00000E+00-1.02271E+00
 -1      4617 5.86000E+01 0.00000E+00 3.58810E-15
 -1      4618 5.85911E+01 0.00000E+00 1.02271E+00
 -1      4619 6.05408E+01 0.00000E+00-1.05674E+00
 -1      4620 6.05500E+01 0.00000E+00 3.70750E-15
 -1      4621 6.05408E+01 0.00000E+00 1.05674E+00
 -1      4622 6.24905E+01 0.00000E+00-1.09078E+00
 -1      4623 6.25000E+01 0.00000E+00 3.82689E-15
 -1      4624 6.24905E+01 0.00000E+00 1.09078E+00
 -1      4625 6.45152E+01 0.00000E+00-1.12612E+00
 -1      4626 6.45250E+01 0.00000E+00 3.95089E-15
 -1      4627 6.45152E+01 0.00000E+00 1.12612E+00
 -1      4628 6.64649E+01 0.00000E+00-1.16015E+00
 -1      4629 6.64750E+01 0.00000E+00 4.07029E-15
 -1      4630 6.64649E+01 0.00000E+00 1.16015E+00
 -1      4631 6.84146E+01 0.00000E+00-1.19418E+00
 -1      4632 6.84250E+01 0.00000E+00 4.18968E-15
 -1      4633 6.84146E+01 0.00000E+00 1.19418E+00
 -1      4634 7.04393E+01 0.00000E+00-1.22952E+00
 -1      4635 7.04500E+01 0.00000E+00 4.31368E-15
 -1      4636 7.04393E+01 0.00000E+00 1.22952E+00
 -1      4637 7.23890E+01 0.00000E+00-1.26355E+00
 -1      4638 7.24000E+01 0.00000E+00 4.43307E-15
 -1      4639 7.23890E+01 0.00000E+00 1.26355E+00
 -1      4640 7.43387E+01 0.00000E+00-1.29759E+00
 -1      4641 7.43500E+01 0.00000E+00 4.55247E-15
 -1      4642 7.43387E+01 0.00000E+00 1.29759E+00
 -1      4643 7.63634E+01 0.00000E+00-1.33293E+00
 -1      4644 7.63750E+01 0.00000E+00 4.67647E-15
 -1      4645 7.63634E+01 0.00000E+00 1.33293E+00
 -1      4646 7.83131E+01 0.00000E+00-1.36696E+00
 -1      4647 7.83250E+01 0.00000E+00 4.79586E-15
 -1      4648 7.83131E+01 0.00000E+00 1.36696E+00
 -1      4649 8.02628E+01 0.00000E+00-1.40099E+00
 -1      4650 8.02750E+01 0.00000E+00 4.91526E-15
 -1      4651 8.02628E+01 0.00000E+00 1.40099E+00
 -1      4652 8.22875E+01 0.00000E+00-1.43633E+00
 -1      4653 8.23000E+01 0.00000E+00 5.03926E-15
 -1      4654 8.22875E+01 0.00000E+00 1.43633E+00
 -1      4655 8.42372E+01 0.00000E+00-1.47037E+00
 -1      4656 8.42500E+01 0.00000E+00 5.15865E-15
 -1      4657 8.42372E+01 0.00000E+00 1.47037E+00
 -1      4658 8.61869E+01 0.00000E+00-1.50440E+00
 -1      4659 8.62000E+01 0.00000E+00 5.27805E-15
 -1      4660 8.61869E+01 0.00000E+00 1.50440E+00
 -1      4661 8.82116E+01 0.00000E+00-1.53974E+00
 -1      4662 8.82250E+01 0.00000E+00 5.40204E-15
 -1      4663 8.82116E+01 0.00000E+00 1.53974E+00
 -1      4664 9.01613E+01 0.00000E+00-1.57377E+00
 -1      4665 9.01750E+01 0.00000E+00 5.52144E-15
 -1      4666 9.01613E+01 0.00000E+00 1.57377E+00
 -1      4667 9.21110E+01 0.00000E+00-1.60780E+00
 -1      4668 9.21250E+01 0.00000E+00 5.64084E-15
 -1      4669 9.21110E+01 0.00000E+00 1.60780E+00
 -1      4670 9.41357E+01 0.00000E+00-1.64314E+00
 -1      4671 9.41500E+01 0.00000E+00 5.76483E-15
 -1      4672 9.41357E+01 0.00000E+00 1.64314E+00
 -1      4673 9.60854E+01 0.00000E+00-1.67718E+00
 -1      4674 9.61000E+01 0.00000E+00 5.88423E-15
 -1      4675 9.60854E+01 0.00000E+00 1.67718E+00
 -1      4676 9.80351E+01 0.00000E+00-1.71121E+00
 -1      4677 9.80500E+01 0.00000E+00 6.00363E-15
 -1      4678 9.80351E+01 0.00000E+00 1.71121E+00
 -1      4679 9.99848E+01 2.00000E+00-1.74524E+00
 -1      4680 1.00000E+02 2.00000E+00 6.12303E-15
 -1      4681 9.99848E+01 2.00000E+00 1.74524E+00
 -1      4682 9.99848E+01 4.00000E+00-1.74524E+00
 -1      4683 1.00000E+02 4.00000E+00 6.12303E-15
 -1      4684 9.99848E+01 4.00000E+00 1.74524E+00
 -1      4685 9.99848E+01 6.00000E+00-1.74524E+00
 -1      4686 1.00000E+02 6.00000E+00 6.12303E-15
 -1      4687 9.99848E+01 6.00000E+00 1.74524E+00
 -1      4688 9.99848E+01 8.00000E+00-1.74524E+00
 -1      4689 1.00000E+02 8.00000E+00 6.12303E-15
 -1      4690 9.99848E+01 8.00000E+00 1.74524E+00
 -1      4691 9.99848E+01 1.00000E+01-1.74524E+00
 -1      4692 1.00000E+02 1.00000E+01 6.12303E-15
 -1      4693 9.99848E+01 1.00000E+01 1.74524E+00
 -1      4694 9.99848E+01 1.20000E+01-1.74524E+00
 -1      4695 1.00000E+02 1.20000E+01 6.12303E-15
 -1      4696 9.99848E+01 1.20000E+01 1.74524E+00
 -1      4697 9.99848E+01 1.40000E+01-1.74524E+00
 -1      4698 1.00000E+02 1.40000E+01 6.12303E-15
 -1      4699 9.99848E+01 1.40000E+01 1.74524E+00
 -1      4700 9.99848E+01 1.60000E+01-1.74524E+00
 -1      4701 1.00000E+02 1.60000E+01 6.12303E-15
 -1      4702 9.99848E+01 1.60000E+01 1.74524E+00
 -1      4703 9.99848E+01 1.80000E+01-1.74524E+00
 -1      4704 1.00000E+02 1.80000E+01 6.12303E-15
 -1      4705 9.99848E+01 1.80000E+01 1.74524E+00
 -1      4706 9.99848E+01 2.00000E+01-1.74524E+00
 -1      4707 1.00000E+02 2.00000E+01 6.12303E-15
 -1      4708 9.99848E+01 2.00000E+01 1.74524E+00
 -1      4709 9.99848E+01 2.20000E+01-1.74524E+00
 -1      4710 1.00000E+02 2.20000E+01 6.12303E-15
 -1      4711 9.99848E+01 2.20000E+01 1.74524E+00
 -1      4712 9.99848E+01 2.40000E+01-1.74524E+00
 -1      4713 1.00000E+02 2.40000E+01 6.12303E-15
 -1      4714 9.99848E+01 2.40000E+01 1.74524E+00
 -1      4715 9.99848E+01 2.60000E+01-1.74524E+00
 -1      4716 1.00000E+02 2.60000E+01 6.12303E-15
 -1      4717 9.99848E+01 2.60000E+01 1.74524E+00
 -1      4718 9.99848E+01 2.80000E+01-1.74524E+00
 -1      4719 1.00000E+02 2.80000E+01 6.12303E-15
 -1      4720 9.99848E+01 2.80000E+01 1.74524E+00
 -1      4721 9.99848E+01 3.00000E+01-1.74524E+00
 -1      4722 1.00000E+02 3.00000E+01 6.12303E-15
 -1      4723 9.99848E+01 3.00000E+01 1.74524E+00
 -1      4724 9.99848E+01 3.20000E+01-1.74524E+00
 -1      4725 1.00000E+02 3.20000E+01 6.12303E-15
 -1      4726 9.99848E+01 3.20000E+01 1.74524E+00
 -1      4727 9.99848E+01 3.40000E+01-1.74524E+00
 -1      4728 1.00000E+02 3.40000E+01 6.12303E-15
 -1      4729 9.99848E+01 3.40000E+01 1.74524E+00
 -1      4730 9.99848E+01 3.60000E+01-1.74524E+00
 -1      4731 1.00000E+02 3.60000E+01 6.12303E-15
 -1      4732 9.99848E+01 3.60000E+01 1.74524E+00
 -1      4733 9.99848E+01 3.80000E+01-1.74524E+00
 -1      4734 1.00000E+02 3.80000E+01 6.12303E-15
 -1      4735 9.99848E+01 3.80000E+01 1.74524E+00
 -1      4736 9.99848E+01 4.00000E+01-1.74524E+00
 -1      4737 1.00000E+02 4.00000E+01 6.12303E-15
 -1      4738 9.99848E+01 4.00000E+01 1.74524E+00
 -1      4739 9.99848E+01 4.20000E+01-1.74524E+00
 -1      4740 1.00000E+02 4.20000E+01 6.12303E-15
 -1      4741 9.99848E+01 4.20000E+01 1.74524E+00
 -1      4742 9.99848E+01 4.40000E+01-1.74524E+00
 -1      4743 1.00000E+02 4.40000E+01 6.12303E-15
 -1      4744 9.99848E+01 4.40000E+01 1.74524E+00
 -1      4745 9.99848E+01 4.60000E+01-1.74524E+00
 -1      4746 1.00000E+02 4.60000E+01 6.12303E-15
 -1      4747 9.99848E+01 4.60000E+01 1.74524E+00
 -1      4748 9.99848E+01 4.80000E+01-1.74524E+00
 -1      4749 1.00000E+02 4.80000E+01 6.12303E-15
 -1      4750 9.99848E+01 4.80000E+01 1.74524E+00
 -1      4751 2.70209E+01 5.00000E+01-4.71651E-01
 -1      4752 2.70250E+01 5.00000E+01 1.65475E-15
 -1      4753 2.70209E+01 5.00000E+01 4.71651E-01
 -1      4754 2.89706E+01 5.00000E+01-5.05683E-01
 -1      4755 2.89750E+01 5.00000E+01 1.77415E-15
 -1      4756 2.89706E+01 5.00000E+01 5.05683E-01
 -1      4757 3.09203E+01 5.00000E+01-5.39716E-01
 -1      4758 3.09250E+01 5.00000E+01 1.89355E-15
 -1      4759 3.09203E+01 5.00000E+01 5.39716E-01
 -1      4760 3.29450E+01 5.00000E+01-5.75057E-01
 -1      4761 3.29500E+01 5.00000E+01 2.01754E-15
 -1      4762 3.29450E+01 5.00000E+01 5.75057E-01
 -1      4763 3.48947E+01 5.00000E+01-6.09089E-01
 -1      4764 3.49000E+01 5.00000E+01 2.13694E-15
 -1      4765 3.48947E+01 5.00000E+01 6.09089E-01
 -1      4766 3.68444E+01 5.00000E+01-6.43121E-01
 -1      4767 3.68500E+01 5.00000E+01 2.25634E-15
 -1      4768 3.68444E+01 5.00000E+01 6.43121E-01
 -1      4769 3.88691E+01 5.00000E+01-6.78462E-01
 -1      4770 3.88750E+01 5.00000E+01 2.38033E-15
 -1      4771 3.88691E+01 5.00000E+01 6.78462E-01
 -1      4772 4.08188E+01 5.00000E+01-7.12494E-01
 -1      4773 4.08250E+01 5.00000E+01 2.49973E-15
 -1      4774 4.08188E+01 5.00000E+01 7.12494E-01
 -1      4775 4.27685E+01 5.00000E+01-7.46527E-01
 -1      4776 4.27750E+01 5.00000E+01 2.61913E-15
 -1      4777 4.27685E+01 5.00000E+01 7.46527E-01
 -1      4778 4.47932E+01 5.00000E+01-7.81868E-01
 -1      4779 4.48000E+01 5.00000E+01 2.74312E-15
 -1      4780 4.47932E+01 5.00000E+01 7.81868E-01
 -1      4781 4.67429E+01 5.00000E+01-8.15900E-01
 -1      4782 4.67500E+01 5.00000E+01 2.86252E-15
 -1      4783 4.67429E+01 5.00000E+01 8.15900E-01
 -1      4784 4.86926E+01 5.00000E+01-8.49932E-01
 -1      4785 4.87000E+01 5.00000E+01 2.98192E-15
 -1      4786 4.86926E+01 5.00000E+01 8.49932E-01
 -1      4787 5.07173E+01 5.00000E+01-8.85273E-01
 -1      4788 5.07250E+01 5.00000E+01 3.10591E-15
 -1      4789 5.07173E+01 5.00000E+01 8.85273E-01
 -1      4790 5.26670E+01 5.00000E+01-9.19306E-01
 -1      4791 5.26750E+01 5.00000E+01 3.22531E-15
 -1      4792 5.26670E+01 5.00000E+01 9.19306E-01
 -1      4793 5.46167E+01 5.00000E+01-9.53338E-01
 -1      4794 5.46250E+01 5.00000E+01 3.34471E-15
 -1      4795 5.46167E+01 5.00000E+01 9.53338E-01
 -1      4796 5.66414E+01 5.00000E+01-9.88679E-01
 -1      4797 5.66500E+01 5.00000E+01 3.46870E-15
 -1      4798 5.66414E+01 5.00000E+01 9.88679E-01
 -1      4799 5.85911E+01 5.00000E+01-1.02271E+00
 -1      4800 5.86000E+01 5.00000E+01 3.58810E-15
 -1      4801 5.85911E+01 5.00000E+01 1.02271E+00
 -1      4802 6.05408E+01 5.00000E+01-1.05674E+00
 -1      4803 6.05500E+01 5.00000E+01 3.70750E-15
 -1      4804 6.05408E+01 5.00000E+01 1.05674E+00
 -1      4805 6.24905E+01 5.00000E+01-1.09078E+00
 -1      4806 6.25000E+01 5.00000E+01 3.82689E-15
 -1      4807 6.24905E+01 5.00000E+01 1.09078E+00
 -1      4808 6.45152E+01 5.00000E+01-1.12612E+00
 -1      4809 6.45250E+01 5.00000E+01 3.95089E-15
 -1      4810 6.45152E+01 5.00000E+01 1.12612E+00
 -1      4811 6.64649E+01 5.00000E+01-1.16015E+00
 -1      4812 6.64750E+01 5.00000E+01 4.07029E-15
 -1      4813 6.64649E+01 5.00000E+01 1.16015E+00
 -1      4814 6.84146E+01 5.00000E+01-1.19418E+00
 -1      4815 6.84250E+01 5.00000E+01 4.18968E-15
 -1      4816 6.84146E+01 5.00000E+01 1.19418E+00
 -1      4817 7.04393E+01 5.00000E+01-1.22952E+00
 -1      4818 7.04500E+01 5.00000E+01 4.31368E-15
 -1      4819 7.04393E+01 5.00000E+01 1.22952E+00
 -1      4820 7.23890E+01 5.00000E+01-1.26355E+00
 -1      4821 7.24000E+01 5.00000E+01 4.43307E-15
 -1      4822 7.23890E+01 5.00000E+01 1.26355E+00
 -1      4823 7.43387E+01 5.00000E+01-1.29759E+00
 -1      4824 7.43500E+01 5.00000E+01 4.55247E-15
 -1      4825 7.43387E+01 5.00000E+01 1.29759E+00
 -1      4826 7.63634E+01 5.00000E+01-1.33293E+00
 -1      4827 7.63750E+01 5.00000E+01 4.67647E-15
 -1      4828 7.63634E+01 5.00000E+01 1.33293E+00
 -1      4829 7.83131E+01 5.00000E+01-1.36696E+00
 -1      4830 7.83250E+01 5.00000E+01 4.79586E-15
 -1      4831 7.83131E+01 5.00000E+01 1.36696E+00
 -1      4832 8.02628E+01 5.00000E+01-1.40099E+00
 -1      4833 8.02750E+01 5.00000E+01 4.91526E-15
 -1      4834 8.02628E+01 5.00000E+01 1.40099E+00
 -1      4835 8.22875E+01 5.00000E+01-1.43633E+00
 -1      4836 8.23000E+01 5.00000E+01 5.03926E-15
 -1      4837 8.22875E+01 5.00000E+01 1.43633E+00
 -1      4838 8.42372E+01 5.00000E+01-1.47037E+00
 -1      4839 8.42500E+01 5.00000E+01 5.15865E-15
 -1      4840 8.42372E+01 5.00000E+01 1.47037E+00
 -1      4841 8.61869E+01 5.00000E+01-1.50440E+00
 -1      4842 8.62000E+01 5.00000E+01 5.27805E-15
 -1      4843 8.61869E+01 5.00000E+01 1.50440E+00
 -1      4844 8.82116E+01 5.00000E+01-1.53974E+00
 -1      4845 8.82250E+01 5.00000E+01 5.40204E-15
 -1      4846 8.82116E+01 5.00000E+01 1.53974E+00
 -1      4847 9.01613E+01 5.00000E+01-1.57377E+00
 -1      4848 9.01750E+01 5.00000E+01 5.52144E-15
 -1      4849 9.01613E+01 5.00000E+01 1.57377E+00
 -1      4850 9.21110E+01 5.00000E+01-1.60780E+00
 -1      4851 9.21250E+01 5.00000E+01 5.64084E-15
 -1      4852 9.21110E+01 5.00000E+01 1.60780E+00
 -1      4853 9.41357E+01 5.00000E+01-1.64314E+00
 -1      4854 9.41500E+01 5.00000E+01 5.76483E-15
 -1      4855 9.41357E+01 5.00000E+01 1.64314E+00
 -1      4856 9.60854E+01 5.00000E+01-1.67718E+00
 -1      4857 9.61000E+01 5.00000E+01 5.88423E-15
 -1      4858 9.60854E+01 5.00000E+01 1.67718E+00
 -1      4859 9.80351E+01 5.00000E+01-1.71121E+00
 -1      4860 9.80500E+01 5.00000E+01 6.00363E-15
 -1      4861 9.80351E+01 5.00000E+01 1.71121E+00
 -1      4862 2.66602E+01 4.73065E+01-4.65355E-01
 -1      4863 2.66642E+01 4.73065E+01 1.63266E-15
 -1      4864 2.66602E+01 4.73065E+01 4.65355E-01
 -1      4865 2.67876E+01 4.31423E+01-4.67580E-01
 -1      4866 2.67917E+01 4.31423E+01 1.64047E-15
 -1      4867 2.67876E+01 4.31423E+01 4.67580E-01
 -1      4868 2.67844E+01 3.90460E+01-4.67523E-01
 -1      4869 2.67884E+01 3.90460E+01 1.64026E-15
 -1      4870 2.67844E+01 3.90460E+01 4.67523E-01
 -1      4871 2.67562E+01 3.50078E+01-4.67032E-01
 -1      4872 2.67603E+01 3.50078E+01 1.63854E-15
 -1      4873 2.67562E+01 3.50078E+01 4.67032E-01
 -1      4874 2.67326E+01 3.09967E+01-4.66620E-01
 -1      4875 2.67367E+01 3.09967E+01 1.63710E-15
 -1      4876 2.67326E+01 3.09967E+01 4.66620E-01
 -1      4877 2.67258E+01 2.69963E+01-4.66500E-01
 -1      4878 2.67299E+01 2.69963E+01 1.63668E-15
 -1      4879 2.67258E+01 2.69963E+01 4.66500E-01
 -1      4880 2.67265E+01 2.29990E+01-4.66513E-01
 -1      4881 2.67306E+01 2.29990E+01 1.63672E-15
 -1      4882 2.67265E+01 2.29990E+01 4.66513E-01
 -1      4883 2.67269E+01 1.90027E+01-4.66520E-01
 -1      4884 2.67310E+01 1.90027E+01 1.63675E-15
 -1      4885 2.67269E+01 1.90027E+01 4.66520E-01
 -1      4886 2.67225E+01 1.50142E+01-4.66443E-01
 -1      4887 2.67266E+01 1.50142E+01 1.63648E-15
 -1      4888 2.67225E+01 1.50142E+01 4.66443E-01
 -1      4889 2.67317E+01 1.10366E+01-4.66603E-01
 -1      4890 2.67358E+01 1.10366E+01 1.63704E-15
 -1      4891 2.67317E+01 1.10366E+01 4.66603E-01
 -1      4892 2.67668E+01 7.08835E+00-4.67216E-01
 -1      4893 2.67709E+01 7.08835E+00 1.63919E-15
 -1      4894 2.67668E+01 7.08835E+00 4.67216E-01
 -1      4895 2.68284E+01 3.22563E+00-4.68292E-01
 -1      4896 2.68325E+01 3.22563E+00 1.64296E-15
 -1      4897 2.68284E+01 3.22563E+00 4.68292E-01
 -1      4898 2.69357E+01 1.46196E+00-4.70165E-01
 -1      4899 2.69398E+01 1.46196E+00 1.64953E-15
 -1      4900 2.69357E+01 1.46196E+00 4.70165E-01
 -1      4901 3.01874E+01 1.48454E+00-5.26922E-01
 -1      4902 3.01920E+01 1.48454E+00 1.84866E-15
 -1      4903 3.01874E+01 1.48454E+00 5.26922E-01
 -1      4904 3.38975E+01 1.68772E+00-5.91684E-01
 -1      4905 3.39027E+01 1.68772E+00 2.07587E-15
 -1      4906 3.38975E+01 1.68772E+00 5.91684E-01
 -1      4907 3.78348E+01 1.75892E+00-6.60409E-01
 -1      4908 3.78406E+01 1.75892E+00 2.31699E-15
 -1      4909 3.78348E+01 1.75892E+00 6.60409E-01
 -1      4910 4.18005E+01 1.73916E+00-7.29630E-01
 -1      4911 4.18069E+01 1.73916E+00 2.55985E-15
 -1      4912 4.18005E+01 1.73916E+00 7.29630E-01
 -1      4913 4.57626E+01 1.73002E+00-7.98790E-01
 -1      4914 4.57696E+01 1.73002E+00 2.80249E-15
 -1      4915 4.57626E+01 1.73002E+00 7.98790E-01
 -1      4916 4.97070E+01 1.72789E+00-8.67638E-01
 -1      4917 4.97145E+01 1.72789E+00 3.04404E-15
 -1      4918 4.97070E+01 1.72789E+00 8.67638E-01
 -1      4919 5.36508E+01 1.73278E+00-9.36478E-01
 -1      4920 5.36590E+01 1.73278E+00 3.28556E-15
 -1      4921 5.36508E+01 1.73278E+00 9.36478E-01
 -1      4922 5.76019E+01 1.73331E+00-1.00544E+00
 -1      4923 5.76106E+01 1.73331E+00 3.52752E-15
 -1      4924 5.76019E+01 1.73331E+00 1.00544E+00
 -1      4925 6.15303E+01 1.73359E+00-1.07402E+00
 -1      4926 6.15396E+01 1.73359E+00 3.76809E-15
 -1      4927 6.15303E+01 1.73359E+00 1.07402E+00
 -1      4928 6.54817E+01 1.73354E+00-1.14299E+00
 -1      4929 6.54917E+01 1.73354E+00 4.01008E-15
 -1      4930 6.54817E+01 1.73354E+00 1.14299E+00
 -1      4931 6.94279E+01 1.73009E+00-1.21187E+00
 -1      4932 6.94385E+01 1.73009E+00 4.25174E-15
 -1      4933 6.94279E+01 1.73009E+00 1.21187E+00
 -1      4934 7.33770E+01 1.73685E+00-1.28080E+00
 -1      4935 7.33882E+01 1.73685E+00 4.49358E-15
 -1      4936 7.33770E+01 1.73685E+00 1.28080E+00
 -1      4937 7.73390E+01 1.74557E+00-1.34996E+00
 -1      4938 7.73508E+01 1.74557E+00 4.73621E-15
 -1      4939 7.73390E+01 1.74557E+00 1.34996E+00
 -1      4940 8.12944E+01 1.75344E+00-1.41900E+00
 -1      4941 8.13067E+01 1.75344E+00 4.97844E-15
 -1      4942 8.12944E+01 1.75344E+00 1.41900E+00
 -1      4943 8.52399E+01 1.75157E+00-1.48787E+00
 -1      4944 8.52529E+01 1.75157E+00 5.22006E-15
 -1      4945 8.52399E+01 1.75157E+00 1.48787E+00
 -1      4946 8.91496E+01 1.66549E+00-1.55611E+00
 -1      4947 8.91632E+01 1.66549E+00 5.45949E-15
 -1      4948 8.91496E+01 1.66549E+00 1.55611E+00
 -1      4949 9.31061E+01 1.71732E+00-1.62517E+00
 -1      4950 9.31203E+01 1.71732E+00 5.70179E-15
 -1      4951 9.31061E+01 1.71732E+00 1.62517E+00
 -1      4952 9.72496E+01 1.78302E+00-1.69750E+00
 -1      4953 9.72645E+01 1.78302E+00 5.95553E-15
 -1      4954 9.72496E+01 1.78302E+00 1.69750E+00
 -1      4955 9.82871E+01 3.32133E+00-1.71561E+00
 -1      4956 9.83021E+01 3.32133E+00 6.01907E-15
 -1      4957 9.82871E+01 3.32133E+00 1.71561E+00
 -1      4958 9.82180E+01 7.09313E+00-1.71440E+00
 -1      4959 9.82330E+01 7.09313E+00 6.01484E-15
 -1      4960 9.82180E+01 7.09313E+00 1.71440E+00
 -1      4961 9.82676E+01 1.10757E+01-1.71527E+00
 -1      4962 9.82825E+01 1.10757E+01 6.01787E-15
 -1      4963 9.82676E+01 1.10757E+01 1.71527E+00
 -1      4964 9.82505E+01 1.50304E+01-1.71497E+00
 -1      4965 9.82654E+01 1.50304E+01 6.01682E-15
 -1      4966 9.82505E+01 1.50304E+01 1.71497E+00
 -1      4967 9.82429E+01 1.90037E+01-1.71484E+00
 -1      4968 9.82579E+01 1.90037E+01 6.01636E-15
 -1      4969 9.82429E+01 1.90037E+01 1.71484E+00
 -1      4970 9.82454E+01 2.29974E+01-1.71488E+00
 -1      4971 9.82603E+01 2.29974E+01 6.01651E-15
 -1      4972 9.82454E+01 2.29974E+01 1.71488E+00
 -1      4973 9.82478E+01 2.69988E+01-1.71492E+00
 -1      4974 9.82627E+01 2.69988E+01 6.01666E-15
 -1      4975 9.82478E+01 2.69988E+01 1.71492E+00
 -1      4976 9.82495E+01 3.09972E+01-1.71495E+00
 -1      4977 9.82644E+01 3.09972E+01 6.01676E-15
 -1      4978 9.82495E+01 3.09972E+01 1.71495E+00
 -1      4979 9.82586E+01 3.49947E+01-1.71511E+00
 -1      4980 9.82735E+01 3.49947E+01 6.01732E-15
 -1      4981 9.82586E+01 3.49947E+01 1.71511E+00
 -1      4982 9.82597E+01 3.90144E+01-1.71513E+00
 -1      4983 9.82747E+01 3.90144E+01 6.01739E-15
 -1      4984 9.82597E+01 3.90144E+01 1.71513E+00
 -1      4985 9.82049E+01 4.30836E+01-1.71417E+00
 -1      4986 9.82199E+01 4.30836E+01 6.01404E-15
 -1      4987 9.82049E+01 4.30836E+01 1.71417E+00
 -1      4988 9.83898E+01 4.70007E+01-1.71740E+00
 -1      4989 9.84048E+01 4.70007E+01 6.02536E-15
 -1      4990 9.83898E+01 4.70007E+01 1.71740E+00
 -1      4991 9.86802E+01 4.86630E+01-1.72247E+00
 -1      4992 9.86953E+01 4.86630E+01 6.04314E-15
 -1      4993 9.86802E+01 4.86630E+01 1.72247E+00
 -1      4994 2.81657E+01 4.83754E+01-4.91634E-01
 -1      4995 2.81700E+01 4.83754E+01 1.72486E-15
 -1      4996 2.81657E+01 4.83754E+01 4.91634E-01
 -1      4997 2.98734E+01 4.81118E+01-5.21442E-01
 -1      4998 2.98779E+01 4.81118E+01 1.82944E-15
 -1      4999 2.98734E+01 4.81118E+01 5.21442E-01
 -1      5000 3.17873E+01 4.80620E+01-5.54850E-01
 -1      5001 3.17922E+01 4.80620E+01 1.94665E-15
 -1      5002 3.17873E+01 4.80620E+01 5.54850E-01
 -1      5003 3.37874E+01 4.81220E+01-5.89761E-01
 -1      5004 3.37926E+01 4.81220E+01 2.06913E-15
 -1      5005 3.37874E+01 4.81220E+01 5.89761E-01
 -1      5006 3.57679E+01 4.81494E+01-6.24331E-01
 -1      5007 3.57733E+01 4.81494E+01 2.19041E-15
 -1      5008 3.57679E+01 4.81494E+01 6.24331E-01
 -1      5009 3.77512E+01 4.81699E+01-6.58949E-01
 -1      5010 3.77569E+01 4.81699E+01 2.31187E-15
 -1      5011 3.77512E+01 4.81699E+01 6.58949E-01
 -1      5012 3.97340E+01 4.81768E+01-6.93560E-01
 -1      5013 3.97401E+01 4.81768E+01 2.43330E-15
 -1      5014 3.97340E+01 4.81768E+01 6.93560E-01
 -1      5015 4.17073E+01 4.81838E+01-7.28003E-01
 -1      5016 4.17136E+01 4.81838E+01 2.55414E-15
 -1      5017 4.17073E+01 4.81838E+01 7.28003E-01
 -1      5018 4.36868E+01 4.81915E+01-7.62556E-01
 -1      5019 4.36935E+01 4.81915E+01 2.67537E-15
 -1      5020 4.36868E+01 4.81915E+01 7.62556E-01
 -1      5021 4.56664E+01 4.81891E+01-7.97110E-01
 -1      5022 4.56734E+01 4.81891E+01 2.79660E-15
 -1      5023 4.56664E+01 4.81891E+01 7.97110E-01
 -1      5024 4.76363E+01 4.81891E+01-8.31495E-01
 -1      5025 4.76436E+01 4.81891E+01 2.91723E-15
 -1      5026 4.76363E+01 4.81891E+01 8.31495E-01
 -1      5027 4.96128E+01 4.81921E+01-8.65995E-01
 -1      5028 4.96204E+01 4.81921E+01 3.03827E-15
 -1      5029 4.96128E+01 4.81921E+01 8.65995E-01
 -1      5030 5.15899E+01 4.81873E+01-9.00505E-01
 -1      5031 5.15977E+01 4.81873E+01 3.15935E-15
 -1      5032 5.15899E+01 4.81873E+01 9.00505E-01
 -1      5033 5.35580E+01 4.81866E+01-9.34859E-01
 -1      5034 5.35662E+01 4.81866E+01 3.27987E-15
 -1      5035 5.35580E+01 4.81866E+01 9.34859E-01
 -1      5036 5.55332E+01 4.81900E+01-9.69335E-01
 -1      5037 5.55416E+01 4.81900E+01 3.40083E-15
 -1      5038 5.55332E+01 4.81900E+01 9.69335E-01
 -1      5039 5.75086E+01 4.81857E+01-1.00382E+00
 -1      5040 5.75174E+01 4.81857E+01 3.52181E-15
 -1      5041 5.75086E+01 4.81857E+01 1.00382E+00
 -1      5042 5.94732E+01 4.81850E+01-1.03811E+00
 -1      5043 5.94822E+01 4.81850E+01 3.64212E-15
 -1      5044 5.94732E+01 4.81850E+01 1.03811E+00
 -1      5045 6.14376E+01 4.81857E+01-1.07240E+00
 -1      5046 6.14470E+01 4.81857E+01 3.76242E-15
 -1      5047 6.14376E+01 4.81857E+01 1.07240E+00
 -1      5048 6.34122E+01 4.81898E+01-1.10686E+00
 -1      5049 6.34219E+01 4.81898E+01 3.88334E-15
 -1      5050 6.34122E+01 4.81898E+01 1.10686E+00
 -1      5051 6.53890E+01 4.81860E+01-1.14137E+00
 -1      5052 6.53990E+01 4.81860E+01 4.00440E-15
 -1      5053 6.53890E+01 4.81860E+01 1.14137E+00
 -1      5054 6.73577E+01 4.81862E+01-1.17573E+00
 -1      5055 6.73680E+01 4.81862E+01 4.12496E-15
 -1      5056 6.73577E+01 4.81862E+01 1.17573E+00
 -1      5057 6.93340E+01 4.81904E+01-1.21023E+00
 -1      5058 6.93446E+01 4.81904E+01 4.24599E-15
 -1      5059 6.93340E+01 4.81904E+01 1.21023E+00
 -1      5060 7.13112E+01 4.81869E+01-1.24474E+00
 -1      5061 7.13220E+01 4.81869E+01 4.36707E-15
 -1      5062 7.13112E+01 4.81869E+01 1.24474E+00
 -1      5063 7.32792E+01 4.81874E+01-1.27909E+00
 -1      5064 7.32904E+01 4.81874E+01 4.48759E-15
 -1      5065 7.32792E+01 4.81874E+01 1.27909E+00