    1C
    1U curvedbeam.inp                                                   
    1UUSER                                                              
    1UDATE              26.january.2021                                 
    1UTIME              14:04:08                                        
    1UHOST                                                              
    1UPGM               CalculiX                                        
    1UVERSION           Version 2.17                             
    1UCOMPILETIME       Thu Jul 23 21:29:36 CEST 2020                    
    1UDIR                                                               
    1UDBN                                                               
    1UMAT    1STEEL                                                     
    2C                         11532                                     1
 -1         1 5.08000E+01 0.00000E+00 0.00000E+00
 -1         2 1.52400E+02 0.00000E+00 0.00000E+00
 -1         3 9.33181E-15-1.52400E+02 0.00000E+00
 -1         4 3.11060E-15-5.08000E+01 0.00000E+00
 -1         5 5.08000E+01 0.00000E+00 1.90500E+01
 -1         6 1.52400E+02 0.00000E+00 1.90500E+01
 -1         7 9.33181E-15-1.52400E+02 1.90500E+01
 -1         8 3.11060E-15-5.08000E+01 1.90500E+01
 -1         9 5.41867E+01 0.00000E+00 0.00000E+00
 -1        10 5.75733E+01 0.00000E+00 0.00000E+00
 -1        11 6.09600E+01 0.00000E+00 0.00000E+00
 -1        12 6.43467E+01 0.00000E+00 0.00000E+00
 -1        13 6.77333E+01 0.00000E+00 0.00000E+00
 -1        14 7.11200E+01 0.00000E+00 0.00000E+00
 -1        15 7.45067E+01 0.00000E+00 0.00000E+00
 -1        16 7.78933E+01 0.00000E+00 0.00000E+00
 -1        17 8.12800E+01 0.00000E+00 0.00000E+00
 -1        18 8.46667E+01 0.00000E+00 0.00000E+00
 -1        19 8.80533E+01 0.00000E+00 0.00000E+00
 -1        20 9.14400E+01 0.00000E+00 0.00000E+00
 -1        21 9.48267E+01 0.00000E+00 0.00000E+00
 -1        22 9.82133E+01 0.00000E+00 0.00000E+00
 -1        23 1.01600E+02 0.00000E+00 0.00000E+00
 -1        24 1.04987E+02 0.00000E+00 0.00000E+00
 -1        25 1.08373E+02 0.00000E+00 0.00000E+00
 -1        26 1.11760E+02 0.00000E+00 0.00000E+00
 -1        27 1.15147E+02 0.00000E+00 0.00000E+00
 -1        28 1.18533E+02 0.00000E+00 0.00000E+00
 -1        29 1.21920E+02 0.00000E+00 0.00000E+00
 -1        30 1.25307E+02 0.00000E+00 0.00000E+00
 -1        31 1.28693E+02 0.00000E+00 0.00000E+00
 -1        32 1.32080E+02 0.00000E+00 0.00000E+00
 -1        33 1.35467E+02 0.00000E+00 0.00000E+00
 -1        34 1.38853E+02 0.00000E+00 0.00000E+00
 -1        35 1.42240E+02 0.00000E+00 0.00000E+00
 -1        36 1.45627E+02 0.00000E+00 0.00000E+00
 -1        37 1.49013E+02 0.00000E+00 0.00000E+00
 -1        38 1.52191E+02-7.97600E+00 0.00000E+00
 -1        39 1.51565E+02-1.59301E+01 0.00000E+00
 -1        40 1.50524E+02-2.38406E+01 0.00000E+00
 -1        41 1.49070E+02-3.16857E+01 0.00000E+00
 -1        42 1.47207E+02-3.94440E+01 0.00000E+00
 -1        43 1.44941E+02-4.70942E+01 0.00000E+00
 -1        44 1.42278E+02-5.46153E+01 0.00000E+00
 -1        45 1.39224E+02-6.19867E+01 0.00000E+00
 -1        46 1.35789E+02-6.91882E+01 0.00000E+00
 -1        47 1.31982E+02-7.62000E+01 0.00000E+00
 -1        48 1.27813E+02-8.30030E+01 0.00000E+00
 -1        49 1.23294E+02-8.95785E+01 0.00000E+00
 -1        50 1.18437E+02-9.59084E+01 0.00000E+00
 -1        51 1.13255E+02-1.01976E+02 0.00000E+00
 -1        52 1.07763E+02-1.07763E+02 0.00000E+00
 -1        53 1.01976E+02-1.13255E+02 0.00000E+00
 -1        54 9.59084E+01-1.18437E+02 0.00000E+00
 -1        55 8.95785E+01-1.23294E+02 0.00000E+00
 -1        56 8.30030E+01-1.27813E+02 0.00000E+00
 -1        57 7.62000E+01-1.31982E+02 0.00000E+00
 -1        58 6.91881E+01-1.35789E+02 0.00000E+00
 -1        59 6.19867E+01-1.39224E+02 0.00000E+00
 -1        60 5.46153E+01-1.42278E+02 0.00000E+00
 -1        61 4.70942E+01-1.44941E+02 0.00000E+00
 -1        62 3.94440E+01-1.47207E+02 0.00000E+00
 -1        63 3.16857E+01-1.49070E+02 0.00000E+00
 -1        64 2.38406E+01-1.50524E+02 0.00000E+00
 -1        65 1.59301E+01-1.51565E+02 0.00000E+00
 -1        66 7.97600E+00-1.52191E+02 0.00000E+00
 -1        67 9.12444E-15-1.49013E+02 0.00000E+00
 -1        68 8.91706E-15-1.45627E+02 0.00000E+00
 -1        69 8.70969E-15-1.42240E+02 0.00000E+00
 -1        70 8.50231E-15-1.38853E+02 0.00000E+00
 -1        71 8.29494E-15-1.35467E+02 0.00000E+00
 -1        72 8.08757E-15-1.32080E+02 0.00000E+00
 -1        73 7.88019E-15-1.28693E+02 0.00000E+00
 -1        74 7.67282E-15-1.25307E+02 0.00000E+00
 -1        75 7.46545E-15-1.21920E+02 0.00000E+00
 -1        76 7.25807E-15-1.18533E+02 0.00000E+00
 -1        77 7.05070E-15-1.15147E+02 0.00000E+00
 -1        78 6.84333E-15-1.11760E+02 0.00000E+00
 -1        79 6.63595E-15-1.08373E+02 0.00000E+00
 -1        80 6.42858E-15-1.04987E+02 0.00000E+00
 -1        81 6.22121E-15-1.01600E+02 0.00000E+00
 -1        82 6.01383E-15-9.82133E+01 0.00000E+00
 -1        83 5.80646E-15-9.48267E+01 0.00000E+00
 -1        84 5.59909E-15-9.14400E+01 0.00000E+00
 -1        85 5.39171E-15-8.80533E+01 0.00000E+00
 -1        86 5.18434E-15-8.46667E+01 0.00000E+00
 -1        87 4.97696E-15-8.12800E+01 0.00000E+00
 -1        88 4.76959E-15-7.78933E+01 0.00000E+00
 -1        89 4.56222E-15-7.45067E+01 0.00000E+00
 -1        90 4.35484E-15-7.11200E+01 0.00000E+00
 -1        91 4.14747E-15-6.77333E+01 0.00000E+00
 -1        92 3.94010E-15-6.43467E+01 0.00000E+00
 -1        93 3.73272E-15-6.09600E+01 0.00000E+00
 -1        94 3.52535E-15-5.75733E+01 0.00000E+00
 -1        95 3.31798E-15-5.41867E+01 0.00000E+00
 -1        96 2.65867E+00-5.07304E+01 0.00000E+00
 -1        97 5.31005E+00-5.05217E+01 0.00000E+00
 -1        98 7.94687E+00-5.01746E+01 0.00000E+00
 -1        99 1.05619E+01-4.96899E+01 0.00000E+00
 -1       100 1.31480E+01-4.90690E+01 0.00000E+00
 -1       101 1.56981E+01-4.83137E+01 0.00000E+00
 -1       102 1.82051E+01-4.74259E+01 0.00000E+00
 -1       103 2.06622E+01-4.64081E+01 0.00000E+00
 -1       104 2.30627E+01-4.52631E+01 0.00000E+00
 -1       105 2.54000E+01-4.39941E+01 0.00000E+00
 -1       106 2.76677E+01-4.26045E+01 0.00000E+00
 -1       107 2.98595E+01-4.10981E+01 0.00000E+00
 -1       108 3.19695E+01-3.94790E+01 0.00000E+00
 -1       109 3.39918E+01-3.77518E+01 0.00000E+00
 -1       110 3.59210E+01-3.59210E+01 0.00000E+00
 -1       111 3.77518E+01-3.39918E+01 0.00000E+00
 -1       112 3.94790E+01-3.19695E+01 0.00000E+00
 -1       113 4.10981E+01-2.98595E+01 0.00000E+00
 -1       114 4.26045E+01-2.76677E+01 0.00000E+00
 -1       115 4.39941E+01-2.54000E+01 0.00000E+00
 -1       116 4.52631E+01-2.30627E+01 0.00000E+00
 -1       117 4.64081E+01-2.06622E+01 0.00000E+00
 -1       118 4.74259E+01-1.82051E+01 0.00000E+00
 -1       119 4.83137E+01-1.56981E+01 0.00000E+00
 -1       120 4.90690E+01-1.31480E+01 0.00000E+00
 -1       121 4.96899E+01-1.05619E+01 0.00000E+00
 -1       122 5.01746E+01-7.94687E+00 0.00000E+00
 -1       123 5.05217E+01-5.31005E+00 0.00000E+00
 -1       124 5.07304E+01-2.65867E+00 0.00000E+00
 -1       125 5.41867E+01 0.00000E+00 1.90500E+01
 -1       126 5.75733E+01 0.00000E+00 1.90500E+01
 -1       127 6.09600E+01 0.00000E+00 1.90500E+01
 -1       128 6.43467E+01 0.00000E+00 1.90500E+01
 -1       129 6.77333E+01 0.00000E+00 1.90500E+01
 -1       130 7.11200E+01 0.00000E+00 1.90500E+01
 -1       131 7.45067E+01 0.00000E+00 1.90500E+01
 -1       132 7.78933E+01 0.00000E+00 1.90500E+01
 -1       133 8.12800E+01 0.00000E+00 1.90500E+01
 -1       134 8.46667E+01 0.00000E+00 1.90500E+01
 -1       135 8.80533E+01 0.00000E+00 1.90500E+01
 -1       136 9.14400E+01 0.00000E+00 1.90500E+01
 -1       137 9.48267E+01 0.00000E+00 1.90500E+01
 -1       138 9.82133E+01 0.00000E+00 1.90500E+01
 -1       139 1.01600E+02 0.00000E+00 1.90500E+01
 -1       140 1.04987E+02 0.00000E+00 1.90500E+01
 -1       141 1.08373E+02 0.00000E+00 1.90500E+01
 -1       142 1.11760E+02 0.00000E+00 1.90500E+01
 -1       143 1.15147E+02 0.00000E+00 1.90500E+01
 -1       144 1.18533E+02 0.00000E+00 1.90500E+01
 -1       145 1.21920E+02 0.00000E+00 1.90500E+01
 -1       146 1.25307E+02 0.00000E+00 1.90500E+01
 -1       147 1.28693E+02 0.00000E+00 1.90500E+01
 -1       148 1.32080E+02 0.00000E+00 1.90500E+01
 -1       149 1.35467E+02 0.00000E+00 1.90500E+01
 -1       150 1.38853E+02 0.00000E+00 1.90500E+01
 -1       151 1.42240E+02 0.00000E+00 1.90500E+01
 -1       152 1.45627E+02 0.00000E+00 1.90500E+01
 -1       153 1.49013E+02 0.00000E+00 1.90500E+01
 -1       154 1.52191E+02-7.97600E+00 1.90500E+01
 -1       155 1.51565E+02-1.59301E+01 1.90500E+01
 -1       156 1.50524E+02-2.38406E+01 1.90500E+01
 -1       157 1.49070E+02-3.16857E+01 1.90500E+01
 -1       158 1.47207E+02-3.94440E+01 1.90500E+01
 -1       159 1.44941E+02-4.70942E+01 1.90500E+01
 -1       160 1.42278E+02-5.46153E+01 1.90500E+01
 -1       161 1.39224E+02-6.19867E+01 1.90500E+01
 -1       162 1.35789E+02-6.91882E+01 1.90500E+01
 -1       163 1.31982E+02-7.62000E+01 1.90500E+01
 -1       164 1.27813E+02-8.30030E+01 1.90500E+01
 -1       165 1.23294E+02-8.95785E+01 1.90500E+01
 -1       166 1.18437E+02-9.59084E+01 1.90500E+01
 -1       167 1.13255E+02-1.01976E+02 1.90500E+01
 -1       168 1.07763E+02-1.07763E+02 1.90500E+01
 -1       169 1.01976E+02-1.13255E+02 1.90500E+01
 -1       170 9.59084E+01-1.18437E+02 1.90500E+01
 -1       171 8.95785E+01-1.23294E+02 1.90500E+01
 -1       172 8.30030E+01-1.27813E+02 1.90500E+01
 -1       173 7.62000E+01-1.31982E+02 1.90500E+01
 -1       174 6.91881E+01-1.35789E+02 1.90500E+01
 -1       175 6.19867E+01-1.39224E+02 1.90500E+01
 -1       176 5.46153E+01-1.42278E+02 1.90500E+01
 -1       177 4.70942E+01-1.44941E+02 1.90500E+01
 -1       178 3.94440E+01-1.47207E+02 1.90500E+01
 -1       179 3.16857E+01-1.49070E+02 1.90500E+01
 -1       180 2.38406E+01-1.50524E+02 1.90500E+01
 -1       181 1.59301E+01-1.51565E+02 1.90500E+01
 -1       182 7.97600E+00-1.52191E+02 1.90500E+01
 -1       183 9.12444E-15-1.49013E+02 1.90500E+01
 -1       184 8.91706E-15-1.45627E+02 1.90500E+01
 -1       185 8.70969E-15-1.42240E+02 1.90500E+01
 -1       186 8.50231E-15-1.38853E+02 1.90500E+01
 -1       187 8.29494E-15-1.35467E+02 1.90500E+01
 -1       188 8.08757E-15-1.32080E+02 1.90500E+01
 -1       189 7.88019E-15-1.28693E+02 1.90500E+01
 -1       190 7.67282E-15-1.25307E+02 1.90500E+01
 -1       191 7.46545E-15-1.21920E+02 1.90500E+01
 -1       192 7.25807E-15-1.18533E+02 1.90500E+01
 -1       193 7.05070E-15-1.15147E+02 1.90500E+01
 -1       194 6.84333E-15-1.11760E+02 1.90500E+01
 -1       195 6.63595E-15-1.08373E+02 1.90500E+01
 -1       196 6.42858E-15-1.04987E+02 1.90500E+01
 -1       197 6.22121E-15-1.01600E+02 1.90500E+01
 -1       198 6.01383E-15-9.82133E+01 1.90500E+01
 -1       199 5.80646E-15-9.48267E+01 1.90500E+01
 -1       200 5.59909E-15-9.14400E+01 1.90500E+01
 -1       201 5.39171E-15-8.80533E+01 1.90500E+01
 -1       202 5.18434E-15-8.46667E+01 1.90500E+01
 -1       203 4.97696E-15-8.12800E+01 1.90500E+01
 -1       204 4.76959E-15-7.78933E+01 1.90500E+01
 -1       205 4.56222E-15-7.45067E+01 1.90500E+01
 -1       206 4.35484E-15-7.11200E+01 1.90500E+01
 -1       207 4.14747E-15-6.77333E+01 1.90500E+01
 -1       208 3.94010E-15-6.43467E+01 1.90500E+01
 -1       209 3.73272E-15-6.09600E+01 1.90500E+01
 -1       210 3.52535E-15-5.75733E+01 1.90500E+01
 -1       211 3.31798E-15-5.41867E+01 1.90500E+01
 -1       212 2.65867E+00-5.07304E+01 1.90500E+01
 -1       213 5.31005E+00-5.05217E+01 1.90500E+01
 -1       214 7.94687E+00-5.01746E+01 1.90500E+01
 -1       215 1.05619E+01-4.96899E+01 1.90500E+01
 -1       216 1.31480E+01-4.90690E+01 1.90500E+01
 -1       217 1.56981E+01-4.83137E+01 1.90500E+01
 -1       218 1.82051E+01-4.74259E+01 1.90500E+01
 -1       219 2.06622E+01-4.64081E+01 1.90500E+01
 -1       220 2.30627E+01-4.52631E+01 1.90500E+01
 -1       221 2.54000E+01-4.39941E+01 1.90500E+01
 -1       222 2.76677E+01-4.26045E+01 1.90500E+01
 -1       223 2.98595E+01-4.10981E+01 1.90500E+01
 -1       224 3.19695E+01-3.94790E+01 1.90500E+01
 -1       225 3.39918E+01-3.77518E+01 1.90500E+01
 -1       226 3.59210E+01-3.59210E+01 1.90500E+01
 -1       227 3.77518E+01-3.39918E+01 1.90500E+01
 -1       228 3.94790E+01-3.19695E+01 1.90500E+01
 -1       229 4.10981E+01-2.98595E+01 1.90500E+01
 -1       230 4.26045E+01-2.76677E+01 1.90500E+01
 -1       231 4.39941E+01-2.54000E+01 1.90500E+01
 -1       232 4.52631E+01-2.30627E+01 1.90500E+01
 -1       233 4.64081E+01-2.06622E+01 1.90500E+01
 -1       234 4.74259E+01-1.82051E+01 1.90500E+01
 -1       235 4.83137E+01-1.56981E+01 1.90500E+01
 -1       236 4.90690E+01-1.31480E+01 1.90500E+01
 -1       237 4.96899E+01-1.05619E+01 1.90500E+01
 -1       238 5.01746E+01-7.94687E+00 1.90500E+01
 -1       239 5.05217E+01-5.31005E+00 1.90500E+01
 -1       240 5.07304E+01-2.65867E+00 1.90500E+01
 -1       241 5.08000E+01 0.00000E+00 1.73182E+00
 -1       242 5.08000E+01 0.00000E+00 3.46364E+00
 -1       243 5.08000E+01 0.00000E+00 5.19545E+00
 -1       244 5.08000E+01 0.00000E+00 6.92727E+00
 -1       245 5.08000E+01 0.00000E+00 8.65909E+00
 -1       246 5.08000E+01 0.00000E+00 1.03909E+01
 -1       247 5.08000E+01 0.00000E+00 1.21227E+01
 -1       248 5.08000E+01 0.00000E+00 1.38545E+01
 -1       249 5.08000E+01 0.00000E+00 1.55864E+01
 -1       250 5.08000E+01 0.00000E+00 1.73182E+01
 -1       251 1.52400E+02 0.00000E+00 1.73182E+00
 -1       252 1.52400E+02 0.00000E+00 3.46364E+00
 -1       253 1.52400E+02 0.00000E+00 5.19545E+00
 -1       254 1.52400E+02 0.00000E+00 6.92727E+00
 -1       255 1.52400E+02 0.00000E+00 8.65909E+00
 -1       256 1.52400E+02 0.00000E+00 1.03909E+01
 -1       257 1.52400E+02 0.00000E+00 1.21227E+01
 -1       258 1.52400E+02 0.00000E+00 1.38545E+01
 -1       259 1.52400E+02 0.00000E+00 1.55864E+01
 -1       260 1.52400E+02 0.00000E+00 1.73182E+01
 -1       261 9.33181E-15-1.52400E+02 1.73182E+00
 -1       262 9.33181E-15-1.52400E+02 3.46364E+00
 -1       263 9.33181E-15-1.52400E+02 5.19545E+00
 -1       264 9.33181E-15-1.52400E+02 6.92727E+00
 -1       265 9.33181E-15-1.52400E+02 8.65909E+00
 -1       266 9.33181E-15-1.52400E+02 1.03909E+01
 -1       267 9.33181E-15-1.52400E+02 1.21227E+01
 -1       268 9.33181E-15-1.52400E+02 1.38545E+01
 -1       269 9.33181E-15-1.52400E+02 1.55864E+01
 -1       270 9.33181E-15-1.52400E+02 1.73182E+01
 -1       271 3.11060E-15-5.08000E+01 1.73182E+00
 -1       272 3.11060E-15-5.08000E+01 3.46364E+00
 -1       273 3.11060E-15-5.08000E+01 5.19545E+00
 -1       274 3.11060E-15-5.08000E+01 6.92727E+00
 -1       275 3.11060E-15-5.08000E+01 8.65909E+00
 -1       276 3.11060E-15-5.08000E+01 1.03909E+01
 -1       277 3.11060E-15-5.08000E+01 1.21227E+01
 -1       278 3.11060E-15-5.08000E+01 1.38545E+01
 -1       279 3.11060E-15-5.08000E+01 1.55864E+01
 -1       280 3.11060E-15-5.08000E+01 1.73182E+01
 -1       281 5.41124E+01-2.83591E+00 0.00000E+00
 -1       282 5.38898E+01-5.66405E+00 0.00000E+00
 -1       283 5.35195E+01-8.47666E+00 0.00000E+00
 -1       284 5.30026E+01-1.12660E+01 0.00000E+00
 -1       285 5.23403E+01-1.40245E+01 0.00000E+00
 -1       286 5.15346E+01-1.67446E+01 0.00000E+00
 -1       287 5.05876E+01-1.94188E+01 0.00000E+00
 -1       288 4.95020E+01-2.20397E+01 0.00000E+00
 -1       289 4.82807E+01-2.46002E+01 0.00000E+00
 -1       290 4.69270E+01-2.70933E+01 0.00000E+00
 -1       291 4.54448E+01-2.95122E+01 0.00000E+00
 -1       292 4.38379E+01-3.18501E+01 0.00000E+00
 -1       293 4.21110E+01-3.41008E+01 0.00000E+00
 -1       294 4.02685E+01-3.62580E+01 0.00000E+00
 -1       295 3.83158E+01-3.83158E+01 0.00000E+00
 -1       296 3.62580E+01-4.02685E+01 0.00000E+00
 -1       297 3.41008E+01-4.21110E+01 0.00000E+00
 -1       298 3.18501E+01-4.38379E+01 0.00000E+00
 -1       299 2.95122E+01-4.54448E+01 0.00000E+00
 -1       300 2.70933E+01-4.69270E+01 0.00000E+00
 -1       301 2.46002E+01-4.82807E+01 0.00000E+00
 -1       302 2.20397E+01-4.95020E+01 0.00000E+00
 -1       303 1.94188E+01-5.05876E+01 0.00000E+00
 -1       304 1.67446E+01-5.15346E+01 0.00000E+00
 -1       305 1.40245E+01-5.23403E+01 0.00000E+00
 -1       306 1.12660E+01-5.30026E+01 0.00000E+00
 -1       307 8.47666E+00-5.35195E+01 0.00000E+00
 -1       308 5.66405E+00-5.38898E+01 0.00000E+00
 -1       309 2.83591E+00-5.41124E+01 0.00000E+00
 -1       310 5.74944E+01-3.01316E+00 0.00000E+00
 -1       311 5.72579E+01-6.01805E+00 0.00000E+00
 -1       312 5.68645E+01-9.00645E+00 0.00000E+00
 -1       313 5.63152E+01-1.19702E+01 0.00000E+00
 -1       314 5.56116E+01-1.49011E+01 0.00000E+00
 -1       315 5.47555E+01-1.77911E+01 0.00000E+00
 -1       316 5.37493E+01-2.06324E+01 0.00000E+00
 -1       317 5.25959E+01-2.34172E+01 0.00000E+00
 -1       318 5.12982E+01-2.61377E+01 0.00000E+00
 -1       319 4.98600E+01-2.87867E+01 0.00000E+00
 -1       320 4.82851E+01-3.13567E+01 0.00000E+00
 -1       321 4.65778E+01-3.38408E+01 0.00000E+00
 -1       322 4.47429E+01-3.62321E+01 0.00000E+00
 -1       323 4.27853E+01-3.85241E+01 0.00000E+00
 -1       324 4.07105E+01-4.07105E+01 0.00000E+00
 -1       325 3.85241E+01-4.27853E+01 0.00000E+00
 -1       326 3.62321E+01-4.47429E+01 0.00000E+00
 -1       327 3.38408E+01-4.65778E+01 0.00000E+00
 -1       328 3.13567E+01-4.82851E+01 0.00000E+00
 -1       329 2.87867E+01-4.98600E+01 0.00000E+00
 -1       330 2.61377E+01-5.12982E+01 0.00000E+00
 -1       331 2.34172E+01-5.25959E+01 0.00000E+00
 -1       332 2.06324E+01-5.37493E+01 0.00000E+00
 -1       333 1.77911E+01-5.47555E+01 0.00000E+00
 -1       334 1.49011E+01-5.56116E+01 0.00000E+00
 -1       335 1.19702E+01-5.63152E+01 0.00000E+00
 -1       336 9.00645E+00-5.68645E+01 0.00000E+00
 -1       337 6.01805E+00-5.72579E+01 0.00000E+00
 -1       338 3.01316E+00-5.74944E+01 0.00000E+00
 -1       339 6.08765E+01-3.19040E+00 0.00000E+00
 -1       340 6.06261E+01-6.37206E+00 0.00000E+00
 -1       341 6.02095E+01-9.53625E+00 0.00000E+00
 -1       342 5.96279E+01-1.26743E+01 0.00000E+00
 -1       343 5.88828E+01-1.57776E+01 0.00000E+00
 -1       344 5.79764E+01-1.88377E+01 0.00000E+00
 -1       345 5.69111E+01-2.18461E+01 0.00000E+00
 -1       346 5.56897E+01-2.47947E+01 0.00000E+00
 -1       347 5.43158E+01-2.76753E+01 0.00000E+00
 -1       348 5.27929E+01-3.04800E+01 0.00000E+00
 -1       349 5.11254E+01-3.32012E+01 0.00000E+00
 -1       350 4.93177E+01-3.58314E+01 0.00000E+00
 -1       351 4.73748E+01-3.83634E+01 0.00000E+00
 -1       352 4.53021E+01-4.07902E+01 0.00000E+00
 -1       353 4.31052E+01-4.31052E+01 0.00000E+00
 -1       354 4.07902E+01-4.53021E+01 0.00000E+00
 -1       355 3.83634E+01-4.73748E+01 0.00000E+00
 -1       356 3.58314E+01-4.93177E+01 0.00000E+00
 -1       357 3.32012E+01-5.11254E+01 0.00000E+00
 -1       358 3.04800E+01-5.27929E+01 0.00000E+00
 -1       359 2.76753E+01-5.43158E+01 0.00000E+00
 -1       360 2.47947E+01-5.56897E+01 0.00000E+00
 -1       361 2.18461E+01-5.69111E+01 0.00000E+00
 -1       362 1.88377E+01-5.79764E+01 0.00000E+00
 -1       363 1.57776E+01-5.88828E+01 0.00000E+00
 -1       364 1.26743E+01-5.96279E+01 0.00000E+00
 -1       365 9.53625E+00-6.02095E+01 0.00000E+00
 -1       366 6.37206E+00-6.06261E+01 0.00000E+00
 -1       367 3.19040E+00-6.08765E+01 0.00000E+00
 -1       368 6.42585E+01-3.36764E+00 0.00000E+00
 -1       369 6.39942E+01-6.72606E+00 0.00000E+00
 -1       370 6.35545E+01-1.00660E+01 0.00000E+00
 -1       371 6.29405E+01-1.33784E+01 0.00000E+00
 -1       372 6.21541E+01-1.66541E+01 0.00000E+00
 -1       373 6.11973E+01-1.98842E+01 0.00000E+00
 -1       374 6.00728E+01-2.30598E+01 0.00000E+00
 -1       375 5.87836E+01-2.61721E+01 0.00000E+00
 -1       376 5.73333E+01-2.92128E+01 0.00000E+00
 -1       377 5.57258E+01-3.21733E+01 0.00000E+00
 -1       378 5.39657E+01-3.50457E+01 0.00000E+00
 -1       379 5.20575E+01-3.78220E+01 0.00000E+00
 -1       380 5.00068E+01-4.04947E+01 0.00000E+00
 -1       381 4.78189E+01-4.30563E+01 0.00000E+00
 -1       382 4.55000E+01-4.55000E+01 0.00000E+00
 -1       383 4.30563E+01-4.78189E+01 0.00000E+00
 -1       384 4.04947E+01-5.00068E+01 0.00000E+00
 -1       385 3.78220E+01-5.20575E+01 0.00000E+00
 -1       386 3.50457E+01-5.39657E+01 0.00000E+00
 -1       387 3.21733E+01-5.57258E+01 0.00000E+00
 -1       388 2.92128E+01-5.73333E+01 0.00000E+00
 -1       389 2.61721E+01-5.87836E+01 0.00000E+00
 -1       390 2.30598E+01-6.00728E+01 0.00000E+00
 -1       391 1.98842E+01-6.11973E+01 0.00000E+00
 -1       392 1.66541E+01-6.21541E+01 0.00000E+00
 -1       393 1.33784E+01-6.29405E+01 0.00000E+00
 -1       394 1.00660E+01-6.35545E+01 0.00000E+00
 -1       395 6.72606E+00-6.39942E+01 0.00000E+00
 -1       396 3.36764E+00-6.42585E+01 0.00000E+00
 -1       397 6.76405E+01-3.54489E+00 0.00000E+00
 -1       398 6.73623E+01-7.08006E+00 0.00000E+00
 -1       399 6.68994E+01-1.05958E+01 0.00000E+00
 -1       400 6.62532E+01-1.40826E+01 0.00000E+00
 -1       401 6.54254E+01-1.75307E+01 0.00000E+00
 -1       402 6.44182E+01-2.09308E+01 0.00000E+00
 -1       403 6.32345E+01-2.42735E+01 0.00000E+00
 -1       404 6.18775E+01-2.75496E+01 0.00000E+00
 -1       405 6.03508E+01-3.07503E+01 0.00000E+00
 -1       406 5.86588E+01-3.38667E+01 0.00000E+00
 -1       407 5.68060E+01-3.68902E+01 0.00000E+00
 -1       408 5.47974E+01-3.98127E+01 0.00000E+00
 -1       409 5.26387E+01-4.26260E+01 0.00000E+00
 -1       410 5.03357E+01-4.53224E+01 0.00000E+00
 -1       411 4.78947E+01-4.78947E+01 0.00000E+00
 -1       412 4.53224E+01-5.03357E+01 0.00000E+00
 -1       413 4.26260E+01-5.26387E+01 0.00000E+00
 -1       414 3.98127E+01-5.47974E+01 0.00000E+00
 -1       415 3.68902E+01-5.68060E+01 0.00000E+00
 -1       416 3.38667E+01-5.86588E+01 0.00000E+00
 -1       417 3.07503E+01-6.03508E+01 0.00000E+00
 -1       418 2.75496E+01-6.18775E+01 0.00000E+00
 -1       419 2.42735E+01-6.32345E+01 0.00000E+00
 -1       420 2.09308E+01-6.44182E+01 0.00000E+00
 -1       421 1.75307E+01-6.54254E+01 0.00000E+00
 -1       422 1.40826E+01-6.62532E+01 0.00000E+00
 -1       423 1.05958E+01-6.68994E+01 0.00000E+00
 -1       424 7.08006E+00-6.73623E+01 0.00000E+00
 -1       425 3.54489E+00-6.76405E+01 0.00000E+00
 -1       426 7.10225E+01-3.72213E+00 0.00000E+00
 -1       427 7.07304E+01-7.43406E+00 0.00000E+00
 -1       428 7.02444E+01-1.11256E+01 0.00000E+00
 -1       429 6.95659E+01-1.47867E+01 0.00000E+00
 -1       430 6.86966E+01-1.84072E+01 0.00000E+00
 -1       431 6.76391E+01-2.19773E+01 0.00000E+00
 -1       432 6.63962E+01-2.54871E+01 0.00000E+00
 -1       433 6.49714E+01-2.89271E+01 0.00000E+00
 -1       434 6.33684E+01-3.22878E+01 0.00000E+00
 -1       435 6.15917E+01-3.55600E+01 0.00000E+00
 -1       436 5.96463E+01-3.87347E+01 0.00000E+00
 -1       437 5.75373E+01-4.18033E+01 0.00000E+00
 -1       438 5.52706E+01-4.47573E+01 0.00000E+00
 -1       439 5.28525E+01-4.75886E+01 0.00000E+00
 -1       440 5.02894E+01-5.02894E+01 0.00000E+00
 -1       441 4.75886E+01-5.28525E+01 0.00000E+00
 -1       442 4.47573E+01-5.52706E+01 0.00000E+00
 -1       443 4.18033E+01-5.75373E+01 0.00000E+00
 -1       444 3.87347E+01-5.96463E+01 0.00000E+00
 -1       445 3.55600E+01-6.15917E+01 0.00000E+00
 -1       446 3.22878E+01-6.33684E+01 0.00000E+00
 -1       447 2.89271E+01-6.49714E+01 0.00000E+00
 -1       448 2.54871E+01-6.63962E+01 0.00000E+00
 -1       449 2.19773E+01-6.76391E+01 0.00000E+00
 -1       450 1.84072E+01-6.86966E+01 0.00000E+00
 -1       451 1.47867E+01-6.95659E+01 0.00000E+00
 -1       452 1.11256E+01-7.02444E+01 0.00000E+00
 -1       453 7.43406E+00-7.07304E+01 0.00000E+00
 -1       454 3.72213E+00-7.10225E+01 0.00000E+00
 -1       455 7.44046E+01-3.89938E+00 0.00000E+00
 -1       456 7.40985E+01-7.78807E+00 0.00000E+00
 -1       457 7.35894E+01-1.16554E+01 0.00000E+00
 -1       458 7.28785E+01-1.54908E+01 0.00000E+00
 -1       459 7.19679E+01-1.92837E+01 0.00000E+00
 -1       460 7.08601E+01-2.30238E+01 0.00000E+00
 -1       461 6.95580E+01-2.67008E+01 0.00000E+00
 -1       462 6.80652E+01-3.03046E+01 0.00000E+00
 -1       463 6.63859E+01-3.38253E+01 0.00000E+00
 -1       464 6.45247E+01-3.72533E+01 0.00000E+00
 -1       465 6.24865E+01-4.05792E+01 0.00000E+00
 -1       466 6.02772E+01-4.37939E+01 0.00000E+00
 -1       467 5.79026E+01-4.68886E+01 0.00000E+00
 -1       468 5.53692E+01-4.98547E+01 0.00000E+00
 -1       469 5.26842E+01-5.26842E+01 0.00000E+00
 -1       470 4.98547E+01-5.53692E+01 0.00000E+00
 -1       471 4.68886E+01-5.79026E+01 0.00000E+00
 -1       472 4.37939E+01-6.02772E+01 0.00000E+00
 -1       473 4.05792E+01-6.24865E+01 0.00000E+00
 -1       474 3.72533E+01-6.45247E+01 0.00000E+00
 -1       475 3.38253E+01-6.63859E+01 0.00000E+00
 -1       476 3.03046E+01-6.80652E+01 0.00000E+00
 -1       477 2.67008E+01-6.95580E+01 0.00000E+00
 -1       478 2.30238E+01-7.08601E+01 0.00000E+00
 -1       479 1.92837E+01-7.19679E+01 0.00000E+00
 -1       480 1.54908E+01-7.28785E+01 0.00000E+00
 -1       481 1.16554E+01-7.35894E+01 0.00000E+00
 -1       482 7.78807E+00-7.40985E+01 0.00000E+00
 -1       483 3.89938E+00-7.44046E+01 0.00000E+00
 -1       484 7.77866E+01-4.07662E+00 0.00000E+00
 -1       485 7.74666E+01-8.14207E+00 0.00000E+00
 -1       486 7.69343E+01-1.21852E+01 0.00000E+00
 -1       487 7.61912E+01-1.61949E+01 0.00000E+00
 -1       488 7.52392E+01-2.01603E+01 0.00000E+00
 -1       489 7.40810E+01-2.40704E+01 0.00000E+00
 -1       490 7.27197E+01-2.79145E+01 0.00000E+00
 -1       491 7.11591E+01-3.16821E+01 0.00000E+00
 -1       492 6.94035E+01-3.53628E+01 0.00000E+00
 -1       493 6.74576E+01-3.89467E+01 0.00000E+00
 -1       494 6.53268E+01-4.24237E+01 0.00000E+00
 -1       495 6.30170E+01-4.57846E+01 0.00000E+00
 -1       496 6.05345E+01-4.90199E+01 0.00000E+00
 -1       497 5.78860E+01-5.21208E+01 0.00000E+00
 -1       498 5.50789E+01-5.50789E+01 0.00000E+00
 -1       499 5.21208E+01-5.78860E+01 0.00000E+00
 -1       500 4.90199E+01-6.05345E+01 0.00000E+00
 -1       501 4.57846E+01-6.30170E+01 0.00000E+00
 -1       502 4.24237E+01-6.53268E+01 0.00000E+00
 -1       503 3.89467E+01-6.74576E+01 0.00000E+00
 -1       504 3.53628E+01-6.94035E+01 0.00000E+00
 -1       505 3.16821E+01-7.11591E+01 0.00000E+00
 -1       506 2.79145E+01-7.27197E+01 0.00000E+00
 -1       507 2.40704E+01-7.40810E+01 0.00000E+00
 -1       508 2.01603E+01-7.52392E+01 0.00000E+00
 -1       509 1.61949E+01-7.61912E+01 0.00000E+00
 -1       510 1.21852E+01-7.69343E+01 0.00000E+00
 -1       511 8.14207E+00-7.74666E+01 0.00000E+00
 -1       512 4.07662E+00-7.77866E+01 0.00000E+00
 -1       513 8.11686E+01-4.25387E+00 0.00000E+00
 -1       514 8.08347E+01-8.49607E+00 0.00000E+00
 -1       515 8.02793E+01-1.27150E+01 0.00000E+00
 -1       516 7.95038E+01-1.68991E+01 0.00000E+00
 -1       517 7.85105E+01-2.10368E+01 0.00000E+00
 -1       518 7.73019E+01-2.51169E+01 0.00000E+00
 -1       519 7.58814E+01-2.91281E+01 0.00000E+00
 -1       520 7.42530E+01-3.30596E+01 0.00000E+00
 -1       521 7.24210E+01-3.69003E+01 0.00000E+00
 -1       522 7.03905E+01-4.06400E+01 0.00000E+00
 -1       523 6.81671E+01-4.42683E+01 0.00000E+00
 -1       524 6.57569E+01-4.77752E+01 0.00000E+00
 -1       525 6.31664E+01-5.11512E+01 0.00000E+00
 -1       526 6.04028E+01-5.43869E+01 0.00000E+00
 -1       527 5.74736E+01-5.74736E+01 0.00000E+00
 -1       528 5.43869E+01-6.04028E+01 0.00000E+00
 -1       529 5.11512E+01-6.31664E+01 0.00000E+00
 -1       530 4.77752E+01-6.57569E+01 0.00000E+00
 -1       531 4.42683E+01-6.81671E+01 0.00000E+00
 -1       532 4.06400E+01-7.03905E+01 0.00000E+00
 -1       533 3.69003E+01-7.24210E+01 0.00000E+00
 -1       534 3.30596E+01-7.42530E+01 0.00000E+00
 -1       535 2.91281E+01-7.58814E+01 0.00000E+00
 -1       536 2.51169E+01-7.73019E+01 0.00000E+00
 -1       537 2.10368E+01-7.85105E+01 0.00000E+00
 -1       538 1.68991E+01-7.95038E+01 0.00000E+00
 -1       539 1.27150E+01-8.02793E+01 0.00000E+00
 -1       540 8.49607E+00-8.08347E+01 0.00000E+00
 -1       541 4.25387E+00-8.11686E+01 0.00000E+00
 -1       542 8.45506E+01-4.43111E+00 0.00000E+00
 -1       543 8.42029E+01-8.85008E+00 0.00000E+00
 -1       544 8.36243E+01-1.32448E+01 0.00000E+00
 -1       545 8.28165E+01-1.76032E+01 0.00000E+00
 -1       546 8.17817E+01-2.19133E+01 0.00000E+00
 -1       547 8.05228E+01-2.61634E+01 0.00000E+00
 -1       548 7.90431E+01-3.03418E+01 0.00000E+00
 -1       549 7.73468E+01-3.44370E+01 0.00000E+00
 -1       550 7.54386E+01-3.84379E+01 0.00000E+00
 -1       551 7.33235E+01-4.23333E+01 0.00000E+00
 -1       552 7.10074E+01-4.61128E+01 0.00000E+00
 -1       553 6.84968E+01-4.97658E+01 0.00000E+00
 -1       554 6.57984E+01-5.32825E+01 0.00000E+00
 -1       555 6.29196E+01-5.66531E+01 0.00000E+00
 -1       556 5.98684E+01-5.98684E+01 0.00000E+00
 -1       557 5.66531E+01-6.29196E+01 0.00000E+00
 -1       558 5.32825E+01-6.57984E+01 0.00000E+00
 -1       559 4.97658E+01-6.84968E+01 0.00000E+00
 -1       560 4.61128E+01-7.10074E+01 0.00000E+00
 -1       561 4.23333E+01-7.33235E+01 0.00000E+00
 -1       562 3.84379E+01-7.54386E+01 0.00000E+00
 -1       563 3.44370E+01-7.73468E+01 0.00000E+00
 -1       564 3.03418E+01-7.90431E+01 0.00000E+00
 -1       565 2.61634E+01-8.05228E+01 0.00000E+00
 -1       566 2.19133E+01-8.17817E+01 0.00000E+00
 -1       567 1.76032E+01-8.28165E+01 0.00000E+00
 -1       568 1.32448E+01-8.36243E+01 0.00000E+00
 -1       569 8.85008E+00-8.42029E+01 0.00000E+00
 -1       570 4.43111E+00-8.45506E+01 0.00000E+00
 -1       571 8.79327E+01-4.60836E+00 0.00000E+00
 -1       572 8.75710E+01-9.20408E+00 0.00000E+00
 -1       573 8.69693E+01-1.37746E+01 0.00000E+00
 -1       574 8.61292E+01-1.83073E+01 0.00000E+00
 -1       575 8.50530E+01-2.27899E+01 0.00000E+00
 -1       576 8.37437E+01-2.72100E+01 0.00000E+00
 -1       577 8.22049E+01-3.15555E+01 0.00000E+00
 -1       578 8.04407E+01-3.58145E+01 0.00000E+00
 -1       579 7.84561E+01-3.99754E+01 0.00000E+00
 -1       580 7.62564E+01-4.40267E+01 0.00000E+00
 -1       581 7.38477E+01-4.79573E+01 0.00000E+00
 -1       582 7.12366E+01-5.17565E+01 0.00000E+00