<?xml version="1.0"?>
<VTKFile type="UnstructuredGrid" version="0.1" byte_order="LittleEndian">
	<UnstructuredGrid>
		<Piece NumberOfPoints="11532" NumberOfCells="9900">
			<Points>
				<DataArray type="Float64" NumberOfComponents="3" format="ascii">
					 5.08000000E+01	 0.00000000E+00	 0.00000000E+00
					 1.52400000E+02	 0.00000000E+00	 0.00000000E+00
					 9.33181000E-15	-1.52400000E+02	 0.00000000E+00
					 3.11060000E-15	-5.08000000E+01	 0.00000000E+00
					 5.08000000E+01	 0.00000000E+00	 1.90500000E+01
					 1.52400000E+02	 0.00000000E+00	 1.90500000E+01
					 9.33181000E-15	-1.52400000E+02	 1.90500000E+01
					 3.11060000E-15	-5.08000000E+01	 1.90500000E+01
					 5.41867000E+01	 0.00000000E+00	 0.00000000E+00
					 5.75733000E+01	 0.00000000E+00	 0.00000000E+00
					 6.09600000E+01	 0.00000000E+00	 0.00000000E+00
					 6.43467000E+01	 0.00000000E+00	 0.00000000E+00
					 6.77333000E+01	 0.00000000E+00	 0.00000000E+00
					 7.11200000E+01	 0.00000000E+00	 0.00000000E+00
					 7.45067000E+01	 0.00000000E+00	 0.00000000E+00
					 7.78933000E+01	 0.00000000E+00	 0.00000000E+00
					 8.12800000E+01	 0.00000000E+00	 0.00000000E+00
					 8.46667000E+01	 0.00000000E+00	 0.00000000E+00
					 8.80533000E+01	 0.00000000E+00	 0.00000000E+00
					 9.14400000E+01	 0.00000000E+00	 0.00000000E+00
					 9.48267000E+01	 0.00000000E+00	 0.00000000E+00
					 9.82133000E+01	 0.00000000E+00	 0.00000000E+00
					 1.01600000E+02	 0.00000000E+00	 0.00000000E+00
					 1.04987000E+02	 0.00000000E+00	 0.00000000E+00
					 1.08373000E+02	 0.00000000E+00	 0.00000000E+00
					 1.11760000E+02	 0.00000000E+00	 0.00000000E+00
					 1.15147000E+02	 0.00000000E+00	 0.00000000E+00
					 1.18533000E+02	 0.00000000E+00	 0.00000000E+00
					 1.21920000E+02	 0.00000000E+00	 0.00000000E+00
					 1.25307000E+02	 0.00000000E+00	 0.00000000E+00
					 1.28693000E+02	 0.00000000E+00	 0.00000000E+00
					 1.32080000E+02	 0.00000000E+00	 0.00000000E+00
					 1.35467000E+02	 0.00000000E+00	 0.00000000E+00
					 1.38853000E+02	 0.00000000E+00	 0.00000000E+00
					 1.42240000E+02	 0.00000000E+00	 0.00000000E+00
					 1.45627000E+02	 0.00000000E+00	 0.00000000E+00
					 1.49013000E+02	 0.00000000E+00	 0.00000000E+00
					 1.52191000E+02	-7.97600000E+00	 0.00000000E+00
					 1.51565000E+02	-1.59301000E+01	 0.00000000E+00
					 1.50524000E+02	-2.38406000E+01	 0.00000000E+00
					 1.49070000E+02	-3.16857000E+01	 0.00000000E+00
					 1.47207000E+02	-3.94440000E+01	 0.00000000E+00
					 1.44941000E+02	-4.70942000E+01	 0.00000000E+00
					 1.42278000E+02	-5.46153000E+01	 0.00000000E+00
					 1.39224000E+02	-6.19867000E+01	 0.00000000E+00
					 1.35789000E+02	-6.91882000E+01	 0.00000000E+00
					 1.31982000E+02	-7.62000000E+01	 0.00000000E+00
					 1.27813000E+02	-8.30030000E+01	 0.00000000E+00
					 1.23294000E+02	-8.95785000E+01	 0.00000000E+00
					 1.18437000E+02	-9.59084000E+01	 0.00000000E+00
					 1.13255000E+02	-1.01976000E+02	 0.00000000E+00
					 1.07763000E+02	-1.07763000E+02	 0.00000000E+00
					 1.01976000E+02	-1.13255000E+02	 0.00000000E+00
					 9.59084000E+01	-1.18437000E+02	 0.00000000E+00
					 8.95785000E+01	-1.23294000E+02	 0.00000000E+00
					 8.30030000E+01	-1.27813000E+02	 0.00000000E+00
					 7.62000000E+01	-1.31982000E+02	 0.00000000E+00
					 6.91881000E+01	-1.35789000E+02	 0.00000000E+00
					 6.19867000E+01	-1.39224000E+02	 0.00000000E+00
					 5.46153000E+01	-1.42278000E+02	 0.00000000E+00
					 4.70942000E+01	-1.44941000E+02	 0.00000000E+00
					 3.94440000E+01	-1.47207000E+02	 0.00000000E+00
					 3.16857000E+01	-1.49070000E+02	 0.00000000E+00
					 2.38406000E+01	-1.50524000E+02	 0.00000000E+00
					 1.59301000E+01	-1.51565000E+02	 0.00000000E+00
					 7.97600000E+00	-1.52191000E+02	 0.00000000E+00
					 9.12444000E-15	-1.49013000E+02	 0.00000000E+00
					 8.91706000E-15	-1.45627000E+02	 0.00000000E+00
					 8.70969000E-15	-1.42240000E+02	 0.00000000E+00
					 8.50231000E-15	-1.38853000E+02	 0.00000000E+00
					 8.29494000E-15	-1.35467000E+02	 0.00000000E+00
					 8.08757000E-15	-1.32080000E+02	 0.00000000E+00
					 7.88019000E-15	-1.28693000E+02	 0.00000000E+00
					 7.67282000E-15	-1.25307000E+02	 0.00000000E+00
					 7.46545000E-15	-1.21920000E+02	 0.00000000E+00
					 7.25807000E-15	-1.18533000E+02	 0.00000000E+00
					 7.05070000E-15	-1.15147000E+02	 0.00000000E+00
					 6.84333000E-15	-1.11760000E+02	 0.00000000E+00
					 6.63595000E-15	-1.08373000E+02	 0.00000000E+00
					 6.42858000E-15	-1.04987000E+02	 0.00000000E+00
					 6.22121000E-15	-1.01600000E+02	 0.00000000E+00
					 6.01383000E-15	-9.82133000E+01	 0.00000000E+00
					 5.80646000E-15	-9.48267000E+01	 0.00000000E+00
					 5.59909000E-15	-9.14400000E+01	 0.00000000E+00
					 5.39171000E-15	-8.80533000E+01	 0.00000000E+00
					 5.18434000E-15	-8.46667000E+01	 0.00000000E+00
					 4.97696000E-15	-8.12800000E+01	 0.00000000E+00
					 4.76959000E-15	-7.78933000E+01	 0.00000000E+00
					 4.56222000E-15	-7.45067000E+01	 0.00000000E+00
					 4.35484000E-15	-7.11200000E+01	 0.00000000E+00
					 4.14747000E-15	-6.77333000E+01	 0.00000000E+00
					 3.94010000E-15	-6.43467000E+01	 0.00000000E+00
					 3.73272000E-15	-6.09600000E+01	 0.00000000E+00
					 3.52535000E-15	-5.75733000E+01	 0.00000000E+00
					 3.31798000E-15	-5.41867000E+01	 0.00000000E+00
					 2.65867000E+00	-5.07304000E+01	 0.00000000E+00
					 5.31005000E+00	-5.05217000E+01	 0.00000000E+00
					 7.94687000E+00	-5.01746000E+01	 0.00000000E+00
					 1.05619000E+01	-4.96899000E+01	 0.00000000E+00
					 1.31480000E+01	-4.90690000E+01	 0.00000000E+00
					 1.56981000E+01	-4.83137000E+01	 0.00000000E+00
					 1.82051000E+01	-4.74259000E+01	 0.00000000E+00
					 2.06622000E+01	-4.64081000E+01	 0.00000000E+00
					 2.30627000E+01	-4.52631000E+01	 0.00000000E+00
					 2.54000000E+01	-4.39941000E+01	 0.00000000E+00
					 2.76677000E+01	-4.26045000E+01	 0.00000000E+00
					 2.98595000E+01	-4.10981000E+01	 0.00000000E+00
					 3.19695000E+01	-3.94790000E+01	 0.00000000E+00
					 3.39918000E+01	-3.77518000E+01	 0.00000000E+00
					 3.59210000E+01	-3.59210000E+01	 0.00000000E+00
					 3.77518000E+01	-3.39918000E+01	 0.00000000E+00
					 3.94790000E+01	-3.19695000E+01	 0.00000000E+00
					 4.10981000E+01	-2.98595000E+01	 0.00000000E+00
					 4.26045000E+01	-2.76677000E+01	 0.00000000E+00
					 4.39941000E+01	-2.54000000E+01	 0.00000000E+00
					 4.52631000E+01	-2.30627000E+01	 0.00000000E+00
					 4.64081000E+01	-2.06622000E+01	 0.00000000E+00
					 4.74259000E+01	-1.82051000E+01	 0.00000000E+00
					 4.83137000E+01	-1.56981000E+01	 0.00000000E+00
					 4.90690000E+01	-1.31480000E+01	 0.00000000E+00
					 4.96899000E+01	-1.05619000E+01	 0.00000000E+00
					 5.01746000E+01	-7.94687000E+00	 0.00000000E+00
					 5.05217000E+01	-5.31005000E+00	 0.00000000E+00
					 5.07304000E+01	-2.65867000E+00	 0.00000000E+00
					 5.41867000E+01	 0.00000000E+00	 1.90500000E+01
					 5.75733000E+01	 0.00000000E+00	 1.90500000E+01
					 6.09600000E+01	 0.00000000E+00	 1.90500000E+01
					 6.43467000E+01	 0.00000000E+00	 1.90500000E+01
					 6.77333000E+01	 0.00000000E+00	 1.90500000E+01
					 7.11200000E+01	 0.00000000E+00	 1.90500000E+01
					 7.45067000E+01	 0.00000000E+00	 1.90500000E+01
					 7.78933000E+01	 0.00000000E+00	 1.90500000E+01
					 8.12800000E+01	 0.00000000E+00	 1.90500000E+01
					 8.46667000E+01	 0.00000000E+00	 1.90500000E+01
					 8.80533000E+01	 0.00000000E+00	 1.90500000E+01
					 9.14400000E+01	 0.00000000E+00	 1.90500000E+01
					 9.48267000E+01	 0.00000000E+00	 1.90500000E+01
					 9.82133000E+01	 0.00000000E+00	 1.90500000E+01
					 1.01600000E+02	 0.00000000E+00	 1.90500000E+01
					 1.04987000E+02	 0.00000000E+00	 1.90500000E+01
					 1.08373000E+02	 0.00000000E+00	 1.90500000E+01
					 1.11760000E+02	 0.00000000E+00	 1.90500000E+01
					 1.15147000E+02	 0.00000000E+00	 1.90500000E+01
					 1.18533000E+02	 0.00000000E+00	 1.90500000E+01
					 1.21920000E+02	 0.00000000E+00	 1.90500000E+01
					 1.25307000E+02	 0.00000000E+00	 1.90500000E+01
					 1.28693000E+02	 0.00000000E+00	 1.90500000E+01
					 1.32080000E+02	 0.00000000E+00	 1.90500000E+01
					 1.35467000E+02	 0.00000000E+00	 1.90500000E+01
					 1.38853000E+02	 0.00000000E+00	 1.90500000E+01
					 1.42240000E+02	 0.00000000E+00	 1.90500000E+01
					 1.45627000E+02	 0.00000000E+00	 1.90500000E+01
					 1.49013000E+02	 0.00000000E+00	 1.90500000E+01
					 1.52191000E+02	-7.97600000E+00	 1.90500000E+01
					 1.51565000E+02	-1.59301000E+01	 1.90500000E+01
					 1.50524000E+02	-2.38406000E+01	 1.90500000E+01
					 1.49070000E+02	-3.16857000E+01	 1.90500000E+01
					 1.47207000E+02	-3.94440000E+01	 1.90500000E+01
					 1.44941000E+02	-4.70942000E+01	 1.90500000E+01
					 1.42278000E+02	-5.46153000E+01	 1.90500000E+01
					 1.39224000E+02	-6.19867000E+01	 1.90500000E+01
					 1.35789000E+02	-6.91882000E+01	 1.90500000E+01
					 1.31982000E+02	-7.62000000E+01	 1.90500000E+01
					 1.27813000E+02	-8.30030000E+01	 1.90500000E+01
					 1.23294000E+02	-8.95785000E+01	 1.90500000E+01
					 1.18437000E+02	-9.59084000E+01	 1.90500000E+01
					 1.13255000E+02	-1.01976000E+02	 1.90500000E+01
					 1.07763000E+02	-1.07763000E+02	 1.90500000E+01
					 1.01976000E+02	-1.13255000E+02	 1.90500000E+01
					 9.59084000E+01	-1.18437000E+02	 1.90500000E+01
					 8.95785000E+01	-1.23294000E+02	 1.90500000E+01
					 8.30030000E+01	-1.27813000E+02	 1.90500000E+01
					 7.62000000E+01	-1.31982000E+02	 1.90500000E+01
					 6.91881000E+01	-1.35789000E+02	 1.90500000E+01
					 6.19867000E+01	-1.39224000E+02	 1.90500000E+01
					 5.46153000E+01	-1.42278000E+02	 1.90500000E+01
					 4.70942000E+01	-1.44941000E+02	 1.90500000E+01
					 3.94440000E+01	-1.47207000E+02	 1.90500000E+01
					 3.16857000E+01	-1.49070000E+02	 1.90500000E+01
					 2.38406000E+01	-1.50524000E+02	 1.90500000E+01
					 1.59301000E+01	-1.51565000E+02	 1.90500000E+01
					 7.97600000E+00	-1.52191000E+02	 1.90500000E+01
					 9.12444000E-15	-1.49013000E+02	 1.90500000E+01
[...]
			<PointData>
				<DataArray type="Float32" Name="U" NumberOfComponents="3" ComponentName0="D1" ComponentName1="D2" ComponentName2="D3" format="ascii">
					 0.00000000E+00	 0.00000000E+00	 0.00000000E+00
					 0.00000000E+00	 0.00000000E+00	 0.00000000E+00
					 6.46221000E-02	-5.26394000E-02	 4.04094000E-06
					-7.94433000E-03	-1.01919000E-01	-8.53174000E-03
					 0.00000000E+00	 0.00000000E+00	 0.00000000E+00
					 0.00000000E+00	 0.00000000E+00	 0.00000000E+00
					 6.46221000E-02	-5.26394000E-02	-4.04094000E-06
					-7.94433000E-03	-1.01919000E-01	 8.53174000E-03
					 0.00000000E+00	 0.00000000E+00	 0.00000000E+00
					 0.00000000E+00	 0.00000000E+00	 0.00000000E+00
					 0.00000000E+00	 0.00000000E+00	 0.00000000E+00
					 0.00000000E+00	 0.00000000E+00	 0.00000000E+00
					 0.00000000E+00	 0.00000000E+00	 0.00000000E+00
					 0.00000000E+00	 0.00000000E+00	 0.00000000E+00
					 0.00000000E+00	 0.00000000E+00	 0.00000000E+00
					 0.00000000E+00	 0.00000000E+00	 0.00000000E+00
					 0.00000000E+00	 0.00000000E+00	 0.00000000E+00
					 0.00000000E+00	 0.00000000E+00	 0.00000000E+00
					 0.00000000E+00	 0.00000000E+00	 0.00000000E+00
					 0.00000000E+00	 0.00000000E+00	 0.00000000E+00
					 0.00000000E+00	 0.00000000E+00	 0.00000000E+00
					 0.00000000E+00	 0.00000000E+00	 0.00000000E+00
					 0.00000000E+00	 0.00000000E+00	 0.00000000E+00
					 0.00000000E+00	 0.00000000E+00	 0.00000000E+00
					 0.00000000E+00	 0.00000000E+00	 0.00000000E+00
					 0.00000000E+00	 0.00000000E+00	 0.00000000E+00
					 0.00000000E+00	 0.00000000E+00	 0.00000000E+00
					 0.00000000E+00	 0.00000000E+00	 0.00000000E+00
					 0.00000000E+00	 0.00000000E+00	 0.00000000E+00
					 0.00000000E+00	 0.00000000E+00	 0.00000000E+00
					 0.00000000E+00	 0.00000000E+00	 0.00000000E+00
					 0.00000000E+00	 0.00000000E+00	 0.00000000E+00
					 0.00000000E+00	 0.00000000E+00	 0.00000000E+00
					 0.00000000E+00	 0.00000000E+00	 0.00000000E+00
					 0.00000000E+00	 0.00000000E+00	 0.00000000E+00
					 0.00000000E+00	 0.00000000E+00	 0.00000000E+00
					 0.00000000E+00	 0.00000000E+00	 0.00000000E+00
					 1.44982000E-03	 2.01304000E-03	-6.78181000E-04
					 2.64633000E-03	 3.36109000E-03	-5.59413000E-04
					 3.97567000E-03	 4.66472000E-03	-5.22739000E-04
					 5.48694000E-03	 5.84380000E-03	-5.04876000E-04
					 7.22841000E-03	 6.87844000E-03	-4.99885000E-04
					 9.21443000E-03	 7.74546000E-03	-4.94860000E-04
					 1.14458000E-02	 8.41722000E-03	-4.88465000E-04
					 1.39131000E-02	 8.86428000E-03	-4.80211000E-04
					 1.65995000E-02	 9.05772000E-03	-4.69926000E-04
					 1.94822000E-02	 8.97075000E-03	-4.57428000E-04
					 2.25335000E-02	 8.57955000E-03	-4.42604000E-04
					 2.57213000E-02	 7.86392000E-03	-4.25383000E-04
					 2.90100000E-02	 6.80780000E-03	-4.05720000E-04
					 3.23609000E-02	 5.39986000E-03	-3.83593000E-04
					 3.57331000E-02	 3.63389000E-03	-3.59010000E-04
					 3.90839000E-02	 1.50929000E-03	-3.32022000E-04
					 4.23698000E-02	-9.68509000E-04	-3.02738000E-04
					 4.55470000E-02	-3.78769000E-03	-2.71356000E-04
					 4.85730000E-02	-6.92982000E-03	-2.38184000E-04
					 5.14074000E-02	-1.03697000E-02	-2.03676000E-04
					 5.40132000E-02	-1.40758000E-02	-1.68457000E-04
					 5.63587000E-02	-1.80102000E-02	-1.33357000E-04
					 5.84185000E-02	-2.21304000E-02	-9.94212000E-05
					 6.01756000E-02	-2.63901000E-02	-6.79205000E-05
					 6.16224000E-02	-3.07421000E-02	-4.03297000E-05
					 6.27619000E-02	-3.51410000E-02	-1.82758000E-05
					 6.36076000E-02	-3.95477000E-02	-3.37343000E-06
					 6.41822000E-02	-4.39344000E-02	 3.32149000E-06
					 6.45136000E-02	-4.82926000E-02	 3.62480000E-06
					 6.27753000E-02	-5.26388000E-02	 3.52455000E-06
					 6.09269000E-02	-5.26363000E-02	 4.02032000E-06
					 5.90816000E-02	-5.26318000E-02	 4.75101000E-06
					 5.72434000E-02	-5.26264000E-02	 4.71932000E-06
					 5.54158000E-02	-5.26219000E-02	 3.11747000E-06
					 5.36015000E-02	-5.26207000E-02	-6.67874000E-07
					 5.18028000E-02	-5.26255000E-02	-7.11658000E-06
					 5.00210000E-02	-5.26398000E-02	-1.66353000E-05
					 4.82571000E-02	-5.26674000E-02	-2.96062000E-05
					 4.65117000E-02	-5.27123000E-02	-4.64248000E-05
					 4.47848000E-02	-5.27793000E-02	-6.75309000E-05
					 4.30757000E-02	-5.28737000E-02	-9.34369000E-05
					 4.13834000E-02	-5.30014000E-02	-1.24759000E-04
					 3.97062000E-02	-5.31691000E-02	-1.62252000E-04
					 3.80418000E-02	-5.33844000E-02	-2.06867000E-04
					 3.63870000E-02	-5.36563000E-02	-2.59819000E-04
					 3.47377000E-02	-5.39953000E-02	-3.22703000E-04
					 3.30889000E-02	-5.44139000E-02	-3.97680000E-04
					 3.14339000E-02	-5.49273000E-02	-4.87763000E-04
					 2.97646000E-02	-5.55545000E-02	-5.97285000E-04
					 2.80705000E-02	-5.63192000E-02	-7.32611000E-04
					 2.63385000E-02	-5.72522000E-02	-9.03167000E-04
					 2.45512000E-02	-5.83942000E-02	-1.12281000E-03
					 2.26850000E-02	-5.98014000E-02	-1.41133000E-03
					 2.07057000E-02	-6.15570000E-02	-1.79634000E-03
					 1.85539000E-02	-6.37945000E-02	-2.31490000E-03
					 1.61449000E-02	-6.67965000E-02	-3.01704000E-03
					 1.31431000E-02	-7.10898000E-02	-4.07799000E-03
					 9.04550000E-03	-7.88337000E-02	-5.01160000E-03
					-3.82892000E-03	-6.85339000E-02	-9.02405000E-04
					-1.45710000E-03	-6.06981000E-02	 1.41017000E-03
					 1.41201000E-04	-5.50394000E-02	 1.86862000E-03
					 1.25553000E-03	-5.10989000E-02	 1.88943000E-03
					 2.03837000E-03	-4.78066000E-02	 1.75676000E-03
					 2.59513000E-03	-4.49028000E-02	 1.59835000E-03
					 2.97672000E-03	-4.22320000E-02	 1.46052000E-03
					 3.21509000E-03	-3.97208000E-02	 1.35808000E-03
					 3.33391000E-03	-3.73280000E-02	 1.29113000E-03
					 3.35342000E-03	-3.50297000E-02	 1.25440000E-03
					 3.29153000E-03	-3.28109000E-02	 1.24143000E-03
					 3.16422000E-03	-3.06617000E-02	 1.24635000E-03
					 2.98560000E-03	-2.85749000E-02	 1.26436000E-03
					 2.76821000E-03	-2.65454000E-02	 1.29175000E-03
					 2.52321000E-03	-2.45688000E-02	 1.32563000E-03
					 2.26067000E-03	-2.26418000E-02	 1.36375000E-03
					 1.98979000E-03	-2.07614000E-02	 1.40430000E-03
					 1.71905000E-03	-1.89252000E-02	 1.44577000E-03
					 1.45638000E-03	-1.71309000E-02	 1.48686000E-03
					 1.20916000E-03	-1.53764000E-02	 1.52643000E-03
					 9.84253000E-04	-1.36601000E-02	 1.56339000E-03
					 7.87933000E-04	-1.19813000E-02	 1.59661000E-03
					 6.25736000E-04	-1.03403000E-02	 1.62446000E-03
					 5.02287000E-04	-8.74013000E-03	 1.64390000E-03
					 4.21094000E-04	-7.18683000E-03	 1.64866000E-03
					 3.83554000E-04	-5.69095000E-03	 1.62506000E-03
					 3.88804000E-04	-4.26521000E-03	 1.54896000E-03
					 4.14702000E-04	-2.92106000E-03	 1.36066000E-03
					 4.64567000E-04	-1.61021000E-03	 1.01780000E-03
					 0.00000000E+00	 0.00000000E+00	 0.00000000E+00
					 0.00000000E+00	 0.00000000E+00	 0.00000000E+00
					 0.00000000E+00	 0.00000000E+00	 0.00000000E+00
					 0.00000000E+00	 0.00000000E+00	 0.00000000E+00
					 0.00000000E+00	 0.00000000E+00	 0.00000000E+00
					 0.00000000E+00	 0.00000000E+00	 0.00000000E+00
					 0.00000000E+00	 0.00000000E+00	 0.00000000E+00
					 0.00000000E+00	 0.00000000E+00	 0.00000000E+00
					 0.00000000E+00	 0.00000000E+00	 0.00000000E+00
					 0.00000000E+00	 0.00000000E+00	 0.00000000E+00
					 0.00000000E+00	 0.00000000E+00	 0.00000000E+00
					 0.00000000E+00	 0.00000000E+00	 0.00000000E+00
					 0.00000000E+00	 0.00000000E+00	 0.00000000E+00
					 0.00000000E+00	 0.00000000E+00	 0.00000000E+00
					 0.00000000E+00	 0.00000000E+00	 0.00000000E+00
					 0.00000000E+00	 0.00000000E+00	 0.00000000E+00
					 0.00000000E+00	 0.00000000E+00	 0.00000000E+00
					 0.00000000E+00	 0.00000000E+00	 0.00000000E+00
					 0.00000000E+00	 0.00000000E+00	 0.00000000E+00
					 0.00000000E+00	 0.00000000E+00	 0.00000000E+00
					 0.00000000E+00	 0.00000000E+00	 0.00000000E+00
					 0.00000000E+00	 0.00000000E+00	 0.00000000E+00
					 0.00000000E+00	 0.00000000E+00	 0.00000000E+00
					 0.00000000E+00	 0.00000000E+00	 0.00000000E+00
					 0.00000000E+00	 0.00000000E+00	 0.00000000E+00
					 0.00000000E+00	 0.00000000E+00	 0.00000000E+00
					 0.00000000E+00	 0.00000000E+00	 0.00000000E+00
					 0.00000000E+00	 0.00000000E+00	 0.00000000E+00
					 0.00000000E+00	 0.00000000E+00	 0.00000000E+00
					 1.44982000E-03	 2.01304000E-03	 6.78181000E-04
					 2.64633000E-03	 3.36109000E-03	 5.59413000E-04
					 3.97567000E-03	 4.66472000E-03	 5.22739000E-04
					 5.48694000E-03	 5.84380000E-03	 5.04876000E-04
					 7.22841000E-03	 6.87844000E-03	 4.99885000E-04
					 9.21443000E-03	 7.74546000E-03	 4.94860000E-04
					 1.14458000E-02	 8.41722000E-03	 4.88465000E-04
					 1.39131000E-02	 8.86428000E-03	 4.80211000E-04
					 1.65995000E-02	 9.05772000E-03	 4.69926000E-04
					 1.94822000E-02	 8.97075000E-03	 4.57428000E-04
					 2.25335000E-02	 8.57955000E-03	 4.42604000E-04
					 2.57213000E-02	 7.86392000E-03	 4.25383000E-04
					 2.90100000E-02	 6.80780000E-03	 4.05720000E-04
					 3.23609000E-02	 5.39986000E-03	 3.83593000E-04
					 3.57331000E-02	 3.63389000E-03	 3.59010000E-04
					 3.90839000E-02	 1.50929000E-03	 3.32022000E-04
					 4.23698000E-02	-9.68509000E-04	 3.02738000E-04
					 4.55470000E-02	-3.78769000E-03	 2.71356000E-04
					 4.85730000E-02	-6.92982000E-03	 2.38184000E-04
					 5.14074000E-02	-1.03697000E-02	 2.03676000E-04
					 5.40132000E-02	-1.40758000E-02	 1.68457000E-04
					 5.63587000E-02	-1.80102000E-02	 1.33357000E-04
					 5.84185000E-02	-2.21304000E-02	 9.94212000E-05
					 6.01756000E-02	-2.63901000E-02	 6.79205000E-05
					 6.16224000E-02	-3.07421000E-02	 4.03297000E-05
					 6.27619000E-02	-3.51410000E-02	 1.82758000E-05
					 6.36076000E-02	-3.95477000E-02	 3.37343000E-06
					 6.41822000E-02	-4.39344000E-02	-3.32149000E-06
					 6.45136000E-02	-4.82926000E-02	-3.62480000E-06
					 6.27753000E-02	-5.26388000E-02	-3.52455000E-06
					 6.09269000E-02	-5.26363000E-02	-4.02032000E-06
					 5.90816000E-02	-5.26318000E-02	-4.75101000E-06
					 5.72434000E-02	-5.26264000E-02	-4.71932000E-06
					 5.54158000E-02	-5.26219000E-02	-3.11747000E-06
					 5.36015000E-02	-5.26207000E-02	 6.67874000E-07
					 5.18028000E-02	-5.26255000E-02	 7.11658000E-06
					 5.00210000E-02	-5.26398000E-02	 1.66353000E-05
					 4.82571000E-02	-5.26674000E-02	 2.96062000E-05
					 4.65117000E-02	-5.27123000E-02	 4.64248000E-05
					 4.47848000E-02	-5.27793000E-02	 6.75309000E-05
					 4.30757000E-02	-5.28737000E-02	 9.34369000E-05
					 4.13834000E-02	-5.30014000E-02	 1.24759000E-04
					 3.97062000E-02	-5.31691000E-02	 1.62252000E-04
					 3.80418000E-02	-5.33844000E-02	 2.06867000E-04
					 3.63870000E-02	-5.36563000E-02	 2.59819000E-04
					 3.47377000E-02	-5.39953000E-02	 3.22703000E-04
					 3.30889000E-02	-5.44139000E-02	 3.97680000E-04
					 3.14339000E-02	-5.49273000E-02	 4.87763000E-04
					 2.97646000E-02	-5.55545000E-02	 5.97285000E-04
					 2.80705000E-02	-5.63192000E-02	 7.32611000E-04
					 2.63385000E-02	-5.72522000E-02	 9.03167000E-04
					 2.45512000E-02	-5.83942000E-02	 1.12281000E-03
					 2.26850000E-02	-5.98014000E-02	 1.41133000E-03
					 2.07057000E-02	-6.15570000E-02	 1.79634000E-03
					 1.85539000E-02	-6.37945000E-02	 2.31490000E-03
					 1.61449000E-02	-6.67965000E-02	 3.01704000E-03
					 1.31431000E-02	-7.10898000E-02	 4.07799000E-03
					 9.04550000E-03	-7.88337000E-02	 5.01160000E-03
					-3.82892000E-03	-6.85339000E-02	 9.02405000E-04
					-1.45710000E-03	-6.06981000E-02	-1.41017000E-03
					 1.41201000E-04	-5.50394000E-02	-1.86862000E-03
					 1.25553000E-03	-5.10989000E-02	-1.88943000E-03
					 2.03837000E-03	-4.78066000E-02	-1.75676000E-03
					 2.59513000E-03	-4.49028000E-02	-1.59835000E-03
					 2.97672000E-03	-4.22320000E-02	-1.46052000E-03
					 3.21509000E-03	-3.97208000E-02	-1.35808000E-03
					 3.33391000E-03	-3.73280000E-02	-1.29113000E-03
					 3.35342000E-03	-3.50297000E-02	-1.25440000E-03
					 3.29153000E-03	-3.28109000E-02	-1.24143000E-03
					 3.16422000E-03	-3.06617000E-02	-1.24635000E-03
					 2.98560000E-03	-2.85749000E-02	-1.26436000E-03
					 2.76821000E-03	-2.65454000E-02	-1.29175000E-03
					 2.52321000E-03	-2.45688000E-02	-1.32563000E-03
					 2.26067000E-03	-2.26418000E-02	-1.36375000E-03
					 1.98979000E-03	-2.07614000E-02	-1.40430000E-03
					 1.71905000E-03	-1.89252000E-02	-1.44577000E-03
					 1.45638000E-03	-1.71309000E-02	-1.48686000E-03
					 1.20916000E-03	-1.53764000E-02	-1.52643000E-03
					 9.84253000E-04	-1.36601000E-02	-1.56339000E-03
					 7.87933000E-04	-1.19813000E-02	-1.59661000E-03
					 6.25736000E-04	-1.03403000E-02	-1.62446000E-03
					 5.02287000E-04	-8.74013000E-03	-1.64390000E-03
					 4.21094000E-04	-7.18683000E-03	-1.64866000E-03
					 3.83554000E-04	-5.69095000E-03	-1.62506000E-03
					 3.88804000E-04	-4.26521000E-03	-1.54896000E-03
					 4.14702000E-04	-2.92106000E-03	-1.36066000E-03
					 4.64567000E-04	-1.61021000E-03	-1.01780000E-03
					 0.00000000E+00	 0.00000000E+00	 0.00000000E+00
					 0.00000000E+00	 0.00000000E+00	 0.00000000E+00
					 0.00000000E+00	 0.00000000E+00	 0.00000000E+00
					 0.00000000E+00	 0.00000000E+00	 0.00000000E+00
					 0.00000000E+00	 0.00000000E+00	 0.00000000E+00
					 0.00000000E+00	 0.00000000E+00	 0.00000000E+00
					 0.00000000E+00	 0.00000000E+00	 0.00000000E+00
					 0.00000000E+00	 0.00000000E+00	 0.00000000E+00
					 0.00000000E+00	 0.00000000E+00	 0.00000000E+00
					 0.00000000E+00	 0.00000000E+00	 0.00000000E+00
					 0.00000000E+00	 0.00000000E+00	 0.00000000E+00
					 0.00000000E+00	 0.00000000E+00	 0.00000000E+00
					 0.00000000E+00	 0.00000000E+00	 0.00000000E+00
					 0.00000000E+00	 0.00000000E+00	 0.00000000E+00
					 0.00000000E+00	 0.00000000E+00	 0.00000000E+00
					 0.00000000E+00	 0.00000000E+00	 0.00000000E+00
					 0.00000000E+00	 0.00000000E+00	 0.00000000E+00
					 0.00000000E+00	 0.00000000E+00	 0.00000000E+00
					 0.00000000E+00	 0.00000000E+00	 0.00000000E+00
					 0.00000000E+00	 0.00000000E+00	 0.00000000E+00
					 6.46225000E-02	-5.26390000E-02	 3.68232000E-06
					 6.46232000E-02	-5.26385000E-02	 3.21446000E-06
					 6.46238000E-02	-5.26380000E-02	 2.52170000E-06
					 6.46242000E-02	-5.26375000E-02	 1.61224000E-06
					 6.46245000E-02	-5.26373000E-02	 5.54735000E-07
					 6.46245000E-02	-5.26373000E-02	-5.54735000E-07
					 6.46242000E-02	-5.26375000E-02	-1.61224000E-06
					 6.46238000E-02	-5.26380000E-02	-2.52170000E-06
					 6.46232000E-02	-5.26385000E-02	-3.21446000E-06
					 6.46225000E-02	-5.26390000E-02	-3.68232000E-06
					-9.14454000E-03	-9.20039000E-02	-5.19073000E-03
					-8.83114000E-03	-9.05896000E-02	-3.20911000E-03
					-8.70411000E-03	-8.98396000E-02	-1.95042000E-03
					-8.62757000E-03	-8.94780000E-02	-1.06536000E-03
					-8.59376000E-03	-8.93220000E-02	-3.39897000E-04
					-8.59376000E-03	-8.93220000E-02	 3.39897000E-04
					-8.62757000E-03	-8.94780000E-02	 1.06536000E-03
					-8.70411000E-03	-8.98396000E-02	 1.95042000E-03
					-8.83114000E-03	-9.05896000E-02	 3.20911000E-03
					-9.14454000E-03	-9.20039000E-02	 5.19073000E-03
					 2.63164000E-06	-1.38658000E-03	 9.48889000E-04
					 1.70276000E-05	-2.62709000E-03	 1.25521000E-03
					 2.61092000E-06	-3.86766000E-03	 1.40011000E-03
					 3.63164000E-05	-5.15964000E-03	 1.45478000E-03
					 1.32461000E-04	-6.50697000E-03	 1.46837000E-03
					 2.93767000E-04	-7.90972000E-03	 1.46074000E-03
					 5.16579000E-04	-9.36522000E-03	 1.44242000E-03
					 7.94859000E-04	-1.08721000E-02	 1.41797000E-03
					 1.12137000E-03	-1.24303000E-02	 1.38941000E-03
					 1.48816000E-03	-1.40412000E-02	 1.35774000E-03
					 1.88681000E-03	-1.57066000E-02	 1.32368000E-03
					 2.30856000E-03	-1.74284000E-02	 1.28795000E-03
					 2.74439000E-03	-1.92086000E-02	 1.25135000E-03
					 3.18504000E-03	-2.10493000E-02	 1.21481000E-03
					 3.62110000E-03	-2.29521000E-02	 1.17936000E-03
					 4.04295000E-03	-2.49190000E-02	 1.14621000E-03
					 4.44084000E-03	-2.69520000E-02	 1.11676000E-03
					 4.80492000E-03	-2.90537000E-02	 1.09267000E-03
					 5.12549000E-03	-3.12274000E-02	 1.07593000E-03
					 5.39348000E-03	-3.34782000E-02	 1.06872000E-03
					 5.60146000E-03	-3.58139000E-02	 1.07310000E-03
					 5.74560000E-03	-3.82473000E-02	 1.08986000E-03
					 5.82912000E-03	-4.08007000E-02	 1.11591000E-03
					 5.86822000E-03	-4.35146000E-02	 1.13859000E-03
					 5.90294000E-03	-4.64666000E-02	 1.12496000E-03
					 6.01538000E-03	-4.98038000E-02	 9.98104000E-04
					 6.38241000E-03	-5.38734000E-02	 6.09006000E-04
					 7.26338000E-03	-5.92663000E-02	-3.96543000E-04
					 9.39512000E-03	-6.85787000E-02	-2.09576000E-03
					-2.02521000E-04	-1.26341000E-03	 9.11035000E-04
					-2.61275000E-04	-2.33569000E-03	 1.17588000E-03
					-2.47866000E-04	-3.46283000E-03	 1.29327000E-03
					-1.69443000E-04	-4.64419000E-03	 1.32766000E-03
					-1.27567000E-05	-5.87700000E-03	 1.33042000E-03
					 2.23525000E-04	-7.16221000E-03	 1.31853000E-03
					 5.35778000E-04	-8.50134000E-03	 1.30004000E-03
					 9.17138000E-04	-9.89700000E-03	 1.27773000E-03
					 1.35915000E-03	-1.13525000E-02	 1.25252000E-03
					 1.85252000E-03	-1.28711000E-02	 1.22475000E-03
					 2.38749000E-03	-1.44563000E-02	 1.19472000E-03
					 2.95413000E-03	-1.61109000E-02	 1.16284000E-03
					 3.54245000E-03	-1.78373000E-02	 1.12960000E-03
					 4.14260000E-03	-1.96375000E-02	 1.09560000E-03
					 4.74495000E-03	-2.15129000E-02	 1.06148000E-03
					 5.34030000E-03	-2.34650000E-02	 1.02788000E-03
					 5.92010000E-03	-2.54952000E-02	 9.95467000E-04
					 6.47685000E-03	-2.76052000E-02	 9.64852000E-04
					 7.00470000E-03	-2.97979000E-02	 9.36508000E-04
					 7.50048000E-03	-3.20778000E-02	 9.10511000E-04
					 7.96551000E-03	-3.44534000E-02	 8.85933000E-04
					 8.40836000E-03	-3.69394000E-02	 8.59552000E-04
					 8.84931000E-03	-3.95628000E-02	 8.23198000E-04
					 9.32680000E-03	-4.23729000E-02	 7.58888000E-04
					 9.90488000E-03	-4.54601000E-02	 6.30227000E-04
					 1.06795000E-02	-4.89966000E-02	 3.71688000E-04
					 1.17442000E-02	-5.32741000E-02	-1.27234000E-04
					 1.31196000E-02	-5.88633000E-02	-9.52452000E-04
					 1.38200000E-02	-6.56584000E-02	-2.27871000E-03
					-3.06583000E-04	-1.15085000E-03	 8.47391000E-04
					-4.16692000E-04	-2.09988000E-03	 1.09010000E-03
					-3.97371000E-04	-3.10412000E-03	 1.18577000E-03
					-2.76278000E-04	-4.17581000E-03	 1.20747000E-03
					-5.96487000E-05	-5.30315000E-03	 1.20309000E-03
					 2.49719000E-04	-6.48466000E-03	 1.18862000E-03
					 6.46797000E-04	-7.72240000E-03	 1.17048000E-03
					 1.12422000E-03	-9.02105000E-03	 1.15019000E-03
					 1.67297000E-03	-1.03861000E-02	 1.12787000E-03
					 2.28308000E-03	-1.18228000E-02	 1.10338000E-03
					 2.94405000E-03	-1.33360000E-02	 1.07667000E-03
					 3.64529000E-03	-1.49295000E-02	 1.04791000E-03
					 4.37627000E-03	-1.66064000E-02	 1.01736000E-03
					 5.12686000E-03	-1.83689000E-02	 9.85335000E-04
					 5.88749000E-03	-2.02189000E-02	 9.52112000E-04
					 6.64951000E-03	-2.21576000E-02	 9.17905000E-04
					 7.40549000E-03	-2.41865000E-02	 8.82768000E-04
					 8.14985000E-03	-2.63076000E-02	 8.46504000E-04
					 8.87951000E-03	-2.85240000E-02	 8.08486000E-04
					 9.59506000E-03	-3.08416000E-02	 7.67324000E-04
					 1.03023000E-02	-3.32707000E-02	 7.20247000E-04
					 1.10143000E-02	-3.58296000E-02	 6.61959000E-04
					 1.17538000E-02	-3.85501000E-02	 5.82648000E-04
					 1.25542000E-02	-4.14863000E-02	 4.64804000E-04
					 1.34560000E-02	-4.47285000E-02	 2.79264000E-04
					 1.44851000E-02	-4.84143000E-02	-1.84958000E-05
					 1.55998000E-02	-5.27313000E-02	-4.78395000E-04
					 1.65027000E-02	-5.77208000E-02	-1.16432000E-03
					 1.67510000E-02	-6.28711000E-02	-2.06290000E-03
					-3.55914000E-04	-1.04735000E-03	 7.77093000E-04
					-4.90837000E-04	-1.89164000E-03	 9.95317000E-04
					-4.62865000E-04	-2.78921000E-03	 1.07684000E-03
					-3.04665000E-04	-3.75564000E-03	 1.09095000E-03
					-3.13373000E-05	-4.78249000E-03	 1.08348000E-03
					 3.48153000E-04	-5.86716000E-03	 1.06870000E-03
					 8.26406000E-04	-7.01195000E-03	 1.05188000E-03