    1C
    1U plate.inp                                                        
    1UUSER                                                              
    1UDATE              31.august.2021                                  
    1UTIME              11:49:23                                        
    1UHOST                                                              
    1UPGM               CalculiX                                        
    1UVERSION           Version 2.17                             
    1UCOMPILETIME       Thu Jul 23 21:43:50 CEST 2020                    
    1UDIR                                                               
    1UDBN                                                               
    1UMAT    1STEEL                                                     
    2C                          4256                                     1
 -1         1 1.87500E+00 1.87500E+00 0.00000E+00
 -1         2 1.87500E+00-1.87500E+00 0.00000E+00
 -1         3-1.87500E+00-1.87500E+00 0.00000E+00
 -1         4-1.87500E+00 1.87500E+00 0.00000E+00
 -1         5 8.00000E+00 8.00000E+00 0.00000E+00
 -1         6 8.00000E+00-8.00000E+00 0.00000E+00
 -1         7-8.00000E+00-8.00000E+00 0.00000E+00
 -1         8-8.00000E+00 8.00000E+00 0.00000E+00
 -1         9 2.50000E+01 3.75000E+01 0.00000E+00
 -1        10 2.50000E+01 8.00000E+00 0.00000E+00
 -1        11 2.50000E+01-8.00000E+00 0.00000E+00
 -1        12 2.50000E+01-3.75000E+01 0.00000E+00
 -1        13 8.00000E+00-3.75000E+01 0.00000E+00
 -1        14-8.00000E+00-3.75000E+01 0.00000E+00
 -1        15-2.50000E+01-3.75000E+01 0.00000E+00
 -1        16-2.50000E+01-8.00000E+00 0.00000E+00
 -1        17-2.50000E+01 8.00000E+00 0.00000E+00
 -1        18-2.50000E+01 3.75000E+01 0.00000E+00
 -1        19-8.00000E+00 3.75000E+01 0.00000E+00
 -1        20 8.00000E+00 3.75000E+01 0.00000E+00
 -1        21 7.22870E+00 7.22870E+00 0.00000E+00
 -1        22 6.53452E+00 6.53452E+00 0.00000E+00
 -1        23 5.90976E+00 5.90976E+00 0.00000E+00
 -1        24 5.34748E+00 5.34748E+00 0.00000E+00
 -1        25 4.84143E+00 4.84143E+00 0.00000E+00
 -1        26 4.38598E+00 4.38598E+00 0.00000E+00
 -1        27 3.97608E+00 3.97608E+00 0.00000E+00
 -1        28 3.60717E+00 3.60717E+00 0.00000E+00
 -1        29 3.27514E+00 3.27514E+00 0.00000E+00
 -1        30 2.97633E+00 2.97633E+00 0.00000E+00
 -1        31 2.70739E+00 2.70739E+00 0.00000E+00
 -1        32 2.46534E+00 2.46534E+00 0.00000E+00
 -1        33 2.24751E+00 2.24751E+00 0.00000E+00
 -1        34 2.05145E+00 2.05145E+00 0.00000E+00
 -1        35 7.22870E+00-7.22870E+00 0.00000E+00
 -1        36 6.53452E+00-6.53452E+00 0.00000E+00
 -1        37 5.90976E+00-5.90976E+00 0.00000E+00
 -1        38 5.34748E+00-5.34748E+00 0.00000E+00
 -1        39 4.84143E+00-4.84143E+00 0.00000E+00
 -1        40 4.38598E+00-4.38598E+00 0.00000E+00
 -1        41 3.97608E+00-3.97608E+00 0.00000E+00
 -1        42 3.60717E+00-3.60717E+00 0.00000E+00
 -1        43 3.27514E+00-3.27514E+00 0.00000E+00
 -1        44 2.97633E+00-2.97633E+00 0.00000E+00
 -1        45 2.70739E+00-2.70739E+00 0.00000E+00
 -1        46 2.46534E+00-2.46534E+00 0.00000E+00
 -1        47 2.24751E+00-2.24751E+00 0.00000E+00
 -1        48 2.05145E+00-2.05145E+00 0.00000E+00
 -1        49-7.22870E+00-7.22870E+00 0.00000E+00
 -1        50-6.53452E+00-6.53452E+00 0.00000E+00
 -1        51-5.90976E+00-5.90976E+00 0.00000E+00
 -1        52-5.34748E+00-5.34748E+00 0.00000E+00
 -1        53-4.84143E+00-4.84143E+00 0.00000E+00
 -1        54-4.38598E+00-4.38598E+00 0.00000E+00
 -1        55-3.97608E+00-3.97608E+00 0.00000E+00
 -1        56-3.60717E+00-3.60717E+00 0.00000E+00
 -1        57-3.27514E+00-3.27514E+00 0.00000E+00
 -1        58-2.97633E+00-2.97633E+00 0.00000E+00
 -1        59-2.70739E+00-2.70739E+00 0.00000E+00
 -1        60-2.46534E+00-2.46534E+00 0.00000E+00
 -1        61-2.24751E+00-2.24751E+00 0.00000E+00
 -1        62-2.05145E+00-2.05145E+00 0.00000E+00
 -1        63-7.22870E+00 7.22870E+00 0.00000E+00
 -1        64-6.53452E+00 6.53452E+00 0.00000E+00
 -1        65-5.90976E+00 5.90976E+00 0.00000E+00
 -1        66-5.34748E+00 5.34748E+00 0.00000E+00
 -1        67-4.84143E+00 4.84143E+00 0.00000E+00
 -1        68-4.38598E+00 4.38598E+00 0.00000E+00
 -1        69-3.97608E+00 3.97608E+00 0.00000E+00
 -1        70-3.60717E+00 3.60717E+00 0.00000E+00
 -1        71-3.27514E+00 3.27514E+00 0.00000E+00
 -1        72-2.97633E+00 2.97633E+00 0.00000E+00
 -1        73-2.70739E+00 2.70739E+00 0.00000E+00
 -1        74-2.46534E+00 2.46534E+00 0.00000E+00
 -1        75-2.24751E+00 2.24751E+00 0.00000E+00
 -1        76-2.05145E+00 2.05145E+00 0.00000E+00
 -1        77 2.06072E+00 1.66874E+00 0.00000E+00
 -1        78 2.22386E+00 1.44419E+00 0.00000E+00
 -1        79 2.36264E+00 1.20382E+00 0.00000E+00
 -1        80 2.47553E+00 9.50267E-01 0.00000E+00
 -1        81 2.56130E+00 6.86298E-01 0.00000E+00
 -1        82 2.61900E+00 4.14810E-01 0.00000E+00
 -1        83 2.64802E+00 1.38777E-01 0.00000E+00
 -1        84 2.64802E+00-1.38777E-01 0.00000E+00
 -1        85 2.61900E+00-4.14810E-01 0.00000E+00
 -1        86 2.56130E+00-6.86298E-01 0.00000E+00
 -1        87 2.47553E+00-9.50267E-01 0.00000E+00
 -1        88 2.36264E+00-1.20382E+00 0.00000E+00
 -1        89 2.22386E+00-1.44419E+00 0.00000E+00
 -1        90 2.06072E+00-1.66874E+00 0.00000E+00
 -1        91 1.66874E+00-2.06072E+00 0.00000E+00
 -1        92 1.44419E+00-2.22386E+00 0.00000E+00
 -1        93 1.20382E+00-2.36264E+00 0.00000E+00
 -1        94 9.50267E-01-2.47553E+00 0.00000E+00
 -1        95 6.86298E-01-2.56130E+00 0.00000E+00
 -1        96 4.14810E-01-2.61900E+00 0.00000E+00
 -1        97 1.38777E-01-2.64802E+00 0.00000E+00
 -1        98-1.38777E-01-2.64802E+00 0.00000E+00
 -1        99-4.14810E-01-2.61900E+00 0.00000E+00
 -1       100-6.86298E-01-2.56130E+00 0.00000E+00
 -1       101-9.50267E-01-2.47553E+00 0.00000E+00
 -1       102-1.20382E+00-2.36264E+00 0.00000E+00
 -1       103-1.44419E+00-2.22386E+00 0.00000E+00
 -1       104-1.66874E+00-2.06072E+00 0.00000E+00
 -1       105-2.06072E+00-1.66874E+00 0.00000E+00
 -1       106-2.22386E+00-1.44419E+00 0.00000E+00
 -1       107-2.36264E+00-1.20382E+00 0.00000E+00
 -1       108-2.47553E+00-9.50267E-01 0.00000E+00
 -1       109-2.56130E+00-6.86298E-01 0.00000E+00
 -1       110-2.61900E+00-4.14810E-01 0.00000E+00
 -1       111-2.64802E+00-1.38777E-01 0.00000E+00
 -1       112-2.64802E+00 1.38777E-01 0.00000E+00
 -1       113-2.61900E+00 4.14810E-01 0.00000E+00
 -1       114-2.56130E+00 6.86298E-01 0.00000E+00
 -1       115-2.47553E+00 9.50267E-01 0.00000E+00
 -1       116-2.36264E+00 1.20382E+00 0.00000E+00
 -1       117-2.22386E+00 1.44419E+00 0.00000E+00
 -1       118-2.06072E+00 1.66874E+00 0.00000E+00
 -1       119-1.66874E+00 2.06072E+00 0.00000E+00
 -1       120-1.44419E+00 2.22386E+00 0.00000E+00
 -1       121-1.20382E+00 2.36264E+00 0.00000E+00
 -1       122-9.50267E-01 2.47553E+00 0.00000E+00
 -1       123-6.86298E-01 2.56130E+00 0.00000E+00
 -1       124-4.14810E-01 2.61900E+00 0.00000E+00
 -1       125-1.38777E-01 2.64802E+00 0.00000E+00
 -1       126 1.38777E-01 2.64802E+00 0.00000E+00
 -1       127 4.14810E-01 2.61900E+00 0.00000E+00
 -1       128 6.86298E-01 2.56130E+00 0.00000E+00
 -1       129 9.50267E-01 2.47553E+00 0.00000E+00
 -1       130 1.20382E+00 2.36264E+00 0.00000E+00
 -1       131 1.44419E+00 2.22386E+00 0.00000E+00
 -1       132 1.66874E+00 2.06072E+00 0.00000E+00
 -1       133 8.00000E+00 6.93333E+00 0.00000E+00
 -1       134 8.00000E+00 5.86667E+00 0.00000E+00
 -1       135 8.00000E+00 4.80000E+00 0.00000E+00
 -1       136 8.00000E+00 3.73333E+00 0.00000E+00
 -1       137 8.00000E+00 2.66667E+00 0.00000E+00
 -1       138 8.00000E+00 1.60000E+00 0.00000E+00
 -1       139 8.00000E+00 5.33333E-01 0.00000E+00
 -1       140 8.00000E+00-5.33333E-01 0.00000E+00
 -1       141 8.00000E+00-1.60000E+00 0.00000E+00
 -1       142 8.00000E+00-2.66667E+00 0.00000E+00
 -1       143 8.00000E+00-3.73333E+00 0.00000E+00
 -1       144 8.00000E+00-4.80000E+00 0.00000E+00
 -1       145 8.00000E+00-5.86667E+00 0.00000E+00
 -1       146 8.00000E+00-6.93333E+00 0.00000E+00
 -1       147 6.93333E+00-8.00000E+00 0.00000E+00
 -1       148 5.86667E+00-8.00000E+00 0.00000E+00
 -1       149 4.80000E+00-8.00000E+00 0.00000E+00
 -1       150 3.73333E+00-8.00000E+00 0.00000E+00
 -1       151 2.66667E+00-8.00000E+00 0.00000E+00
 -1       152 1.60000E+00-8.00000E+00 0.00000E+00
 -1       153 5.33333E-01-8.00000E+00 0.00000E+00
 -1       154-5.33333E-01-8.00000E+00 0.00000E+00
 -1       155-1.60000E+00-8.00000E+00 0.00000E+00
 -1       156-2.66667E+00-8.00000E+00 0.00000E+00
 -1       157-3.73333E+00-8.00000E+00 0.00000E+00
 -1       158-4.80000E+00-8.00000E+00 0.00000E+00
 -1       159-5.86667E+00-8.00000E+00 0.00000E+00
 -1       160-6.93333E+00-8.00000E+00 0.00000E+00
 -1       161-8.00000E+00-6.93333E+00 0.00000E+00
 -1       162-8.00000E+00-5.86667E+00 0.00000E+00
 -1       163-8.00000E+00-4.80000E+00 0.00000E+00
 -1       164-8.00000E+00-3.73333E+00 0.00000E+00
 -1       165-8.00000E+00-2.66667E+00 0.00000E+00
 -1       166-8.00000E+00-1.60000E+00 0.00000E+00
 -1       167-8.00000E+00-5.33333E-01 0.00000E+00
 -1       168-8.00000E+00 5.33333E-01 0.00000E+00
 -1       169-8.00000E+00 1.60000E+00 0.00000E+00
 -1       170-8.00000E+00 2.66667E+00 0.00000E+00
 -1       171-8.00000E+00 3.73333E+00 0.00000E+00
 -1       172-8.00000E+00 4.80000E+00 0.00000E+00
 -1       173-8.00000E+00 5.86667E+00 0.00000E+00
 -1       174-8.00000E+00 6.93333E+00 0.00000E+00
 -1       175-6.93333E+00 8.00000E+00 0.00000E+00
 -1       176-5.86667E+00 8.00000E+00 0.00000E+00
 -1       177-4.80000E+00 8.00000E+00 0.00000E+00
 -1       178-3.73333E+00 8.00000E+00 0.00000E+00
 -1       179-2.66667E+00 8.00000E+00 0.00000E+00
 -1       180-1.60000E+00 8.00000E+00 0.00000E+00
 -1       181-5.33333E-01 8.00000E+00 0.00000E+00
 -1       182 5.33333E-01 8.00000E+00 0.00000E+00
 -1       183 1.60000E+00 8.00000E+00 0.00000E+00
 -1       184 2.66667E+00 8.00000E+00 0.00000E+00
 -1       185 3.73333E+00 8.00000E+00 0.00000E+00
 -1       186 4.80000E+00 8.00000E+00 0.00000E+00
 -1       187 5.86667E+00 8.00000E+00 0.00000E+00
 -1       188 6.93333E+00 8.00000E+00 0.00000E+00
 -1       189 2.50000E+01 3.64828E+01 0.00000E+00
 -1       190 2.50000E+01 3.54655E+01 0.00000E+00
 -1       191 2.50000E+01 3.44483E+01 0.00000E+00
 -1       192 2.50000E+01 3.34310E+01 0.00000E+00
 -1       193 2.50000E+01 3.24138E+01 0.00000E+00
 -1       194 2.50000E+01 3.13966E+01 0.00000E+00
 -1       195 2.50000E+01 3.03793E+01 0.00000E+00
 -1       196 2.50000E+01 2.93621E+01 0.00000E+00
 -1       197 2.50000E+01 2.83448E+01 0.00000E+00
 -1       198 2.50000E+01 2.73276E+01 0.00000E+00
 -1       199 2.50000E+01 2.63103E+01 0.00000E+00
 -1       200 2.50000E+01 2.52931E+01 0.00000E+00
 -1       201 2.50000E+01 2.42759E+01 0.00000E+00
 -1       202 2.50000E+01 2.32586E+01 0.00000E+00
 -1       203 2.50000E+01 2.22414E+01 0.00000E+00
 -1       204 2.50000E+01 2.12241E+01 0.00000E+00
 -1       205 2.50000E+01 2.02069E+01 0.00000E+00
 -1       206 2.50000E+01 1.91897E+01 0.00000E+00
 -1       207 2.50000E+01 1.81724E+01 0.00000E+00
 -1       208 2.50000E+01 1.71552E+01 0.00000E+00
 -1       209 2.50000E+01 1.61379E+01 0.00000E+00
 -1       210 2.50000E+01 1.51207E+01 0.00000E+00
 -1       211 2.50000E+01 1.41034E+01 0.00000E+00
 -1       212 2.50000E+01 1.30862E+01 0.00000E+00
 -1       213 2.50000E+01 1.20690E+01 0.00000E+00
 -1       214 2.50000E+01 1.10517E+01 0.00000E+00
 -1       215 2.50000E+01 1.00345E+01 0.00000E+00
 -1       216 2.50000E+01 9.01724E+00 0.00000E+00
 -1       217 2.50000E+01 6.93333E+00 0.00000E+00
 -1       218 2.50000E+01 5.86667E+00 0.00000E+00
 -1       219 2.50000E+01 4.80000E+00 0.00000E+00
 -1       220 2.50000E+01 3.73333E+00 0.00000E+00
 -1       221 2.50000E+01 2.66667E+00 0.00000E+00
 -1       222 2.50000E+01 1.60000E+00 0.00000E+00
 -1       223 2.50000E+01 5.33333E-01 0.00000E+00
 -1       224 2.50000E+01-5.33333E-01 0.00000E+00
 -1       225 2.50000E+01-1.60000E+00 0.00000E+00
 -1       226 2.50000E+01-2.66667E+00 0.00000E+00
 -1       227 2.50000E+01-3.73333E+00 0.00000E+00
 -1       228 2.50000E+01-4.80000E+00 0.00000E+00
 -1       229 2.50000E+01-5.86667E+00 0.00000E+00
 -1       230 2.50000E+01-6.93333E+00 0.00000E+00
 -1       231 2.50000E+01-9.01724E+00 0.00000E+00
 -1       232 2.50000E+01-1.00345E+01 0.00000E+00
 -1       233 2.50000E+01-1.10517E+01 0.00000E+00
 -1       234 2.50000E+01-1.20690E+01 0.00000E+00
 -1       235 2.50000E+01-1.30862E+01 0.00000E+00
 -1       236 2.50000E+01-1.41034E+01 0.00000E+00
 -1       237 2.50000E+01-1.51207E+01 0.00000E+00
 -1       238 2.50000E+01-1.61379E+01 0.00000E+00
 -1       239 2.50000E+01-1.71552E+01 0.00000E+00
 -1       240 2.50000E+01-1.81724E+01 0.00000E+00
 -1       241 2.50000E+01-1.91897E+01 0.00000E+00
 -1       242 2.50000E+01-2.02069E+01 0.00000E+00
 -1       243 2.50000E+01-2.12241E+01 0.00000E+00
 -1       244 2.50000E+01-2.22414E+01 0.00000E+00
 -1       245 2.50000E+01-2.32586E+01 0.00000E+00
 -1       246 2.50000E+01-2.42759E+01 0.00000E+00
 -1       247 2.50000E+01-2.52931E+01 0.00000E+00
 -1       248 2.50000E+01-2.63103E+01 0.00000E+00
 -1       249 2.50000E+01-2.73276E+01 0.00000E+00
 -1       250 2.50000E+01-2.83448E+01 0.00000E+00
 -1       251 2.50000E+01-2.93621E+01 0.00000E+00
 -1       252 2.50000E+01-3.03793E+01 0.00000E+00
 -1       253 2.50000E+01-3.13966E+01 0.00000E+00
 -1       254 2.50000E+01-3.24138E+01 0.00000E+00
 -1       255 2.50000E+01-3.34310E+01 0.00000E+00
 -1       256 2.50000E+01-3.44483E+01 0.00000E+00
 -1       257 2.50000E+01-3.54655E+01 0.00000E+00
 -1       258 2.50000E+01-3.64828E+01 0.00000E+00
 -1       259 2.39375E+01-3.75000E+01 0.00000E+00
 -1       260 2.28750E+01-3.75000E+01 0.00000E+00
 -1       261 2.18125E+01-3.75000E+01 0.00000E+00
 -1       262 2.07500E+01-3.75000E+01 0.00000E+00
 -1       263 1.96875E+01-3.75000E+01 0.00000E+00
 -1       264 1.86250E+01-3.75000E+01 0.00000E+00
 -1       265 1.75625E+01-3.75000E+01 0.00000E+00
 -1       266 1.65000E+01-3.75000E+01 0.00000E+00
 -1       267 1.54375E+01-3.75000E+01 0.00000E+00
 -1       268 1.43750E+01-3.75000E+01 0.00000E+00
 -1       269 1.33125E+01-3.75000E+01 0.00000E+00
 -1       270 1.22500E+01-3.75000E+01 0.00000E+00
 -1       271 1.11875E+01-3.75000E+01 0.00000E+00
 -1       272 1.01250E+01-3.75000E+01 0.00000E+00
 -1       273 9.06250E+00-3.75000E+01 0.00000E+00
 -1       274 6.93333E+00-3.75000E+01 0.00000E+00
 -1       275 5.86667E+00-3.75000E+01 0.00000E+00
 -1       276 4.80000E+00-3.75000E+01 0.00000E+00
 -1       277 3.73333E+00-3.75000E+01 0.00000E+00
 -1       278 2.66667E+00-3.75000E+01 0.00000E+00
 -1       279 1.60000E+00-3.75000E+01 0.00000E+00
 -1       280 5.33333E-01-3.75000E+01 0.00000E+00
 -1       281-5.33333E-01-3.75000E+01 0.00000E+00
 -1       282-1.60000E+00-3.75000E+01 0.00000E+00
 -1       283-2.66667E+00-3.75000E+01 0.00000E+00
 -1       284-3.73333E+00-3.75000E+01 0.00000E+00
 -1       285-4.80000E+00-3.75000E+01 0.00000E+00
 -1       286-5.86667E+00-3.75000E+01 0.00000E+00
 -1       287-6.93333E+00-3.75000E+01 0.00000E+00
 -1       288-9.06250E+00-3.75000E+01 0.00000E+00
 -1       289-1.01250E+01-3.75000E+01 0.00000E+00
 -1       290-1.11875E+01-3.75000E+01 0.00000E+00
 -1       291-1.22500E+01-3.75000E+01 0.00000E+00
 -1       292-1.33125E+01-3.75000E+01 0.00000E+00
 -1       293-1.43750E+01-3.75000E+01 0.00000E+00
 -1       294-1.54375E+01-3.75000E+01 0.00000E+00
 -1       295-1.65000E+01-3.75000E+01 0.00000E+00
 -1       296-1.75625E+01-3.75000E+01 0.00000E+00
 -1       297-1.86250E+01-3.75000E+01 0.00000E+00
 -1       298-1.96875E+01-3.75000E+01 0.00000E+00
 -1       299-2.07500E+01-3.75000E+01 0.00000E+00
 -1       300-2.18125E+01-3.75000E+01 0.00000E+00
 -1       301-2.28750E+01-3.75000E+01 0.00000E+00
 -1       302-2.39375E+01-3.75000E+01 0.00000E+00
 -1       303-2.50000E+01-3.64828E+01 0.00000E+00
 -1       304-2.50000E+01-3.54655E+01 0.00000E+00
 -1       305-2.50000E+01-3.44483E+01 0.00000E+00
 -1       306-2.50000E+01-3.34310E+01 0.00000E+00
 -1       307-2.50000E+01-3.24138E+01 0.00000E+00
 -1       308-2.50000E+01-3.13966E+01 0.00000E+00
 -1       309-2.50000E+01-3.03793E+01 0.00000E+00
 -1       310-2.50000E+01-2.93621E+01 0.00000E+00
 -1       311-2.50000E+01-2.83448E+01 0.00000E+00
 -1       312-2.50000E+01-2.73276E+01 0.00000E+00
 -1       313-2.50000E+01-2.63103E+01 0.00000E+00
 -1       314-2.50000E+01-2.52931E+01 0.00000E+00
 -1       315-2.50000E+01-2.42759E+01 0.00000E+00
 -1       316-2.50000E+01-2.32586E+01 0.00000E+00
 -1       317-2.50000E+01-2.22414E+01 0.00000E+00
 -1       318-2.50000E+01-2.12241E+01 0.00000E+00
 -1       319-2.50000E+01-2.02069E+01 0.00000E+00
 -1       320-2.50000E+01-1.91897E+01 0.00000E+00
 -1       321-2.50000E+01-1.81724E+01 0.00000E+00
 -1       322-2.50000E+01-1.71552E+01 0.00000E+00
 -1       323-2.50000E+01-1.61379E+01 0.00000E+00
 -1       324-2.50000E+01-1.51207E+01 0.00000E+00
 -1       325-2.50000E+01-1.41034E+01 0.00000E+00
 -1       326-2.50000E+01-1.30862E+01 0.00000E+00
 -1       327-2.50000E+01-1.20690E+01 0.00000E+00
 -1       328-2.50000E+01-1.10517E+01 0.00000E+00
 -1       329-2.50000E+01-1.00345E+01 0.00000E+00
 -1       330-2.50000E+01-9.01724E+00 0.00000E+00
 -1       331-2.50000E+01-6.93333E+00 0.00000E+00
 -1       332-2.50000E+01-5.86667E+00 0.00000E+00
 -1       333-2.50000E+01-4.80000E+00 0.00000E+00
 -1       334-2.50000E+01-3.73333E+00 0.00000E+00
 -1       335-2.50000E+01-2.66667E+00 0.00000E+00
 -1       336-2.50000E+01-1.60000E+00 0.00000E+00
 -1       337-2.50000E+01-5.33333E-01 0.00000E+00
 -1       338-2.50000E+01 5.33333E-01 0.00000E+00
 -1       339-2.50000E+01 1.60000E+00 0.00000E+00
 -1       340-2.50000E+01 2.66667E+00 0.00000E+00
 -1       341-2.50000E+01 3.73333E+00 0.00000E+00
 -1       342-2.50000E+01 4.80000E+00 0.00000E+00
 -1       343-2.50000E+01 5.86667E+00 0.00000E+00
 -1       344-2.50000E+01 6.93333E+00 0.00000E+00
 -1       345-2.50000E+01 9.01724E+00 0.00000E+00
 -1       346-2.50000E+01 1.00345E+01 0.00000E+00
 -1       347-2.50000E+01 1.10517E+01 0.00000E+00
 -1       348-2.50000E+01 1.20690E+01 0.00000E+00
 -1       349-2.50000E+01 1.30862E+01 0.00000E+00
 -1       350-2.50000E+01 1.41034E+01 0.00000E+00
 -1       351-2.50000E+01 1.51207E+01 0.00000E+00
 -1       352-2.50000E+01 1.61379E+01 0.00000E+00
 -1       353-2.50000E+01 1.71552E+01 0.00000E+00
 -1       354-2.50000E+01 1.81724E+01 0.00000E+00
 -1       355-2.50000E+01 1.91897E+01 0.00000E+00
 -1       356-2.50000E+01 2.02069E+01 0.00000E+00
 -1       357-2.50000E+01 2.12241E+01 0.00000E+00
 -1       358-2.50000E+01 2.22414E+01 0.00000E+00
 -1       359-2.50000E+01 2.32586E+01 0.00000E+00
 -1       360-2.50000E+01 2.42759E+01 0.00000E+00
 -1       361-2.50000E+01 2.52931E+01 0.00000E+00
 -1       362-2.50000E+01 2.63103E+01 0.00000E+00
 -1       363-2.50000E+01 2.73276E+01 0.00000E+00
 -1       364-2.50000E+01 2.83448E+01 0.00000E+00
 -1       365-2.50000E+01 2.93621E+01 0.00000E+00
 -1       366-2.50000E+01 3.03793E+01 0.00000E+00
 -1       367-2.50000E+01 3.13966E+01 0.00000E+00
 -1       368-2.50000E+01 3.24138E+01 0.00000E+00
 -1       369-2.50000E+01 3.34310E+01 0.00000E+00
 -1       370-2.50000E+01 3.44483E+01 0.00000E+00
 -1       371-2.50000E+01 3.54655E+01 0.00000E+00
 -1       372-2.50000E+01 3.64828E+01 0.00000E+00
 -1       373-2.39375E+01 3.75000E+01 0.00000E+00
 -1       374-2.28750E+01 3.75000E+01 0.00000E+00
 -1       375-2.18125E+01 3.75000E+01 0.00000E+00
 -1       376-2.07500E+01 3.75000E+01 0.00000E+00
 -1       377-1.96875E+01 3.75000E+01 0.00000E+00
 -1       378-1.86250E+01 3.75000E+01 0.00000E+00
 -1       379-1.75625E+01 3.75000E+01 0.00000E+00
 -1       380-1.65000E+01 3.75000E+01 0.00000E+00
 -1       381-1.54375E+01 3.75000E+01 0.00000E+00
 -1       382-1.43750E+01 3.75000E+01 0.00000E+00
 -1       383-1.33125E+01 3.75000E+01 0.00000E+00
 -1       384-1.22500E+01 3.75000E+01 0.00000E+00
 -1       385-1.11875E+01 3.75000E+01 0.00000E+00
 -1       386-1.01250E+01 3.75000E+01 0.00000E+00
 -1       387-9.06250E+00 3.75000E+01 0.00000E+00
 -1       388-6.93333E+00 3.75000E+01 0.00000E+00
 -1       389-5.86667E+00 3.75000E+01 0.00000E+00
 -1       390-4.80000E+00 3.75000E+01 0.00000E+00
 -1       391-3.73333E+00 3.75000E+01 0.00000E+00
 -1       392-2.66667E+00 3.75000E+01 0.00000E+00
 -1       393-1.60000E+00 3.75000E+01 0.00000E+00
 -1       394-5.33333E-01 3.75000E+01 0.00000E+00
 -1       395 5.33333E-01 3.75000E+01 0.00000E+00
 -1       396 1.60000E+00 3.75000E+01 0.00000E+00
 -1       397 2.66667E+00 3.75000E+01 0.00000E+00
 -1       398 3.73333E+00 3.75000E+01 0.00000E+00
 -1       399 4.80000E+00 3.75000E+01 0.00000E+00
 -1       400 5.86667E+00 3.75000E+01 0.00000E+00
 -1       401 6.93333E+00 3.75000E+01 0.00000E+00
 -1       402 9.06250E+00 3.75000E+01 0.00000E+00
 -1       403 1.01250E+01 3.75000E+01 0.00000E+00
 -1       404 1.11875E+01 3.75000E+01 0.00000E+00
 -1       405 1.22500E+01 3.75000E+01 0.00000E+00
 -1       406 1.33125E+01 3.75000E+01 0.00000E+00
 -1       407 1.43750E+01 3.75000E+01 0.00000E+00
 -1       408 1.54375E+01 3.75000E+01 0.00000E+00
 -1       409 1.65000E+01 3.75000E+01 0.00000E+00
 -1       410 1.75625E+01 3.75000E+01 0.00000E+00
 -1       411 1.86250E+01 3.75000E+01 0.00000E+00
 -1       412 1.96875E+01 3.75000E+01 0.00000E+00
 -1       413 2.07500E+01 3.75000E+01 0.00000E+00
 -1       414 2.18125E+01 3.75000E+01 0.00000E+00
 -1       415 2.28750E+01 3.75000E+01 0.00000E+00
 -1       416 2.39375E+01 3.75000E+01 0.00000E+00
 -1       417 9.06250E+00 8.00000E+00 0.00000E+00
 -1       418 1.01250E+01 8.00000E+00 0.00000E+00
 -1       419 1.11875E+01 8.00000E+00 0.00000E+00
 -1       420 1.22500E+01 8.00000E+00 0.00000E+00
 -1       421 1.33125E+01 8.00000E+00 0.00000E+00
 -1       422 1.43750E+01 8.00000E+00 0.00000E+00
 -1       423 1.54375E+01 8.00000E+00 0.00000E+00
 -1       424 1.65000E+01 8.00000E+00 0.00000E+00
 -1       425 1.75625E+01 8.00000E+00 0.00000E+00
 -1       426 1.86250E+01 8.00000E+00 0.00000E+00
 -1       427 1.96875E+01 8.00000E+00 0.00000E+00
 -1       428 2.07500E+01 8.00000E+00 0.00000E+00
 -1       429 2.18125E+01 8.00000E+00 0.00000E+00
 -1       430 2.28750E+01 8.00000E+00 0.00000E+00
 -1       431 2.39375E+01 8.00000E+00 0.00000E+00
 -1       432 9.06250E+00-8.00000E+00 0.00000E+00
 -1       433 1.01250E+01-8.00000E+00 0.00000E+00
 -1       434 1.11875E+01-8.00000E+00 0.00000E+00
 -1       435 1.22500E+01-8.00000E+00 0.00000E+00
 -1       436 1.33125E+01-8.00000E+00 0.00000E+00
 -1       437 1.43750E+01-8.00000E+00 0.00000E+00
 -1       438 1.54375E+01-8.00000E+00 0.00000E+00
 -1       439 1.65000E+01-8.00000E+00 0.00000E+00
 -1       440 1.75625E+01-8.00000E+00 0.00000E+00
 -1       441 1.86250E+01-8.00000E+00 0.00000E+00
 -1       442 1.96875E+01-8.00000E+00 0.00000E+00
 -1       443 2.07500E+01-8.00000E+00 0.00000E+00
 -1       444 2.18125E+01-8.00000E+00 0.00000E+00
 -1       445 2.28750E+01-8.00000E+00 0.00000E+00
 -1       446 2.39375E+01-8.00000E+00 0.00000E+00
 -1       447 8.00000E+00-9.01724E+00 0.00000E+00
 -1       448 8.00000E+00-1.00345E+01 0.00000E+00
 -1       449 8.00000E+00-1.10517E+01 0.00000E+00
 -1       450 8.00000E+00-1.20690E+01 0.00000E+00
 -1       451 8.00000E+00-1.30862E+01 0.00000E+00
 -1       452 8.00000E+00-1.41034E+01 0.00000E+00
 -1       453 8.00000E+00-1.51207E+01 0.00000E+00
 -1       454 8.00000E+00-1.61379E+01 0.00000E+00
 -1       455 8.00000E+00-1.71552E+01 0.00000E+00
 -1       456 8.00000E+00-1.81724E+01 0.00000E+00
 -1       457 8.00000E+00-1.91897E+01 0.00000E+00
 -1       458 8.00000E+00-2.02069E+01 0.00000E+00
 -1       459 8.00000E+00-2.12241E+01 0.00000E+00
 -1       460 8.00000E+00-2.22414E+01 0.00000E+00
 -1       461 8.00000E+00-2.32586E+01 0.00000E+00
 -1       462 8.00000E+00-2.42759E+01 0.00000E+00
 -1       463 8.00000E+00-2.52931E+01 0.00000E+00
 -1       464 8.00000E+00-2.63103E+01 0.00000E+00
 -1       465 8.00000E+00-2.73276E+01 0.00000E+00
 -1       466 8.00000E+00-2.83448E+01 0.00000E+00
 -1       467 8.00000E+00-2.93621E+01 0.00000E+00
 -1       468 8.00000E+00-3.03793E+01 0.00000E+00
 -1       469 8.00000E+00-3.13966E+01 0.00000E+00
 -1       470 8.00000E+00-3.24138E+01 0.00000E+00
 -1       471 8.00000E+00-3.34310E+01 0.00000E+00
 -1       472 8.00000E+00-3.44483E+01 0.00000E+00
 -1       473 8.00000E+00-3.54655E+01 0.00000E+00
 -1       474 8.00000E+00-3.64828E+01 0.00000E+00
 -1       475-8.00000E+00-9.01724E+00 0.00000E+00
 -1       476-8.00000E+00-1.00345E+01 0.00000E+00
 -1       477-8.00000E+00-1.10517E+01 0.00000E+00
 -1       478-8.00000E+00-1.20690E+01 0.00000E+00
 -1       479-8.00000E+00-1.30862E+01 0.00000E+00
 -1       480-8.00000E+00-1.41034E+01 0.00000E+00
 -1       481-8.00000E+00-1.51207E+01 0.00000E+00
 -1       482-8.00000E+00-1.61379E+01 0.00000E+00
 -1       483-8.00000E+00-1.71552E+01 0.00000E+00
 -1       484-8.00000E+00-1.81724E+01 0.00000E+00
 -1       485-8.00000E+00-1.91897E+01 0.00000E+00
 -1       486-8.00000E+00-2.02069E+01 0.00000E+00
 -1       487-8.00000E+00-2.12241E+01 0.00000E+00
 -1       488-8.00000E+00-2.22414E+01 0.00000E+00
 -1       489-8.00000E+00-2.32586E+01 0.00000E+00
 -1       490-8.00000E+00-2.42759E+01 0.00000E+00
 -1       491-8.00000E+00-2.52931E+01 0.00000E+00
 -1       492-8.00000E+00-2.63103E+01 0.00000E+00
 -1       493-8.00000E+00-2.73276E+01 0.00000E+00
 -1       494-8.00000E+00-2.83448E+01 0.00000E+00
 -1       495-8.00000E+00-2.93621E+01 0.00000E+00
 -1       496-8.00000E+00-3.03793E+01 0.00000E+00
 -1       497-8.00000E+00-3.13966E+01 0.00000E+00
 -1       498-8.00000E+00-3.24138E+01 0.00000E+00
 -1       499-8.00000E+00-3.34310E+01 0.00000E+00
 -1       500-8.00000E+00-3.44483E+01 0.00000E+00
 -1       501-8.00000E+00-3.54655E+01 0.00000E+00
 -1       502-8.00000E+00-3.64828E+01 0.00000E+00
 -1       503-9.06250E+00-8.00000E+00 0.00000E+00
 -1       504-1.01250E+01-8.00000E+00 0.00000E+00
 -1       505-1.11875E+01-8.00000E+00 0.00000E+00
 -1       506-1.22500E+01-8.00000E+00 0.00000E+00
 -1       507-1.33125E+01-8.00000E+00 0.00000E+00
 -1       508-1.43750E+01-8.00000E+00 0.00000E+00
 -1       509-1.54375E+01-8.00000E+00 0.00000E+00
 -1       510-1.65000E+01-8.00000E+00 0.00000E+00
 -1       511-1.75625E+01-8.00000E+00 0.00000E+00
 -1       512-1.86250E+01-8.00000E+00 0.00000E+00
 -1       513-1.96875E+01-8.00000E+00 0.00000E+00
 -1       514-2.07500E+01-8.00000E+00 0.00000E+00
 -1       515-2.18125E+01-8.00000E+00 0.00000E+00
 -1       516-2.28750E+01-8.00000E+00 0.00000E+00
 -1       517-2.39375E+01-8.00000E+00 0.00000E+00
 -1       518-9.06250E+00 8.00000E+00 0.00000E+00
 -1       519-1.01250E+01 8.00000E+00 0.00000E+00
 -1       520-1.11875E+01 8.00000E+00 0.00000E+00
 -1       521-1.22500E+01 8.00000E+00 0.00000E+00
 -1       522-1.33125E+01 8.00000E+00 0.00000E+00
 -1       523-1.43750E+01 8.00000E+00 0.00000E+00
 -1       524-1.54375E+01 8.00000E+00 0.00000E+00
 -1       525-1.65000E+01 8.00000E+00 0.00000E+00
 -1       526-1.75625E+01 8.00000E+00 0.00000E+00
 -1       527-1.86250E+01 8.00000E+00 0.00000E+00
 -1       528-1.96875E+01 8.00000E+00 0.00000E+00
 -1       529-2.07500E+01 8.00000E+00 0.00000E+00
 -1       530-2.18125E+01 8.00000E+00 0.00000E+00
 -1       531-2.28750E+01 8.00000E+00 0.00000E+00
 -1       532-2.39375E+01 8.00000E+00 0.00000E+00
 -1       533-8.00000E+00 9.01724E+00 0.00000E+00
 -1       534-8.00000E+00 1.00345E+01 0.00000E+00
 -1       535-8.00000E+00 1.10517E+01 0.00000E+00
 -1       536-8.00000E+00 1.20690E+01 0.00000E+00
 -1       537-8.00000E+00 1.30862E+01 0.00000E+00
 -1       538-8.00000E+00 1.41034E+01 0.00000E+00
 -1       539-8.00000E+00 1.51207E+01 0.00000E+00
 -1       540-8.00000E+00 1.61379E+01 0.00000E+00
 -1       541-8.00000E+00 1.71552E+01 0.00000E+00
 -1       542-8.00000E+00 1.81724E+01 0.00000E+00
 -1       543-8.00000E+00 1.91897E+01 0.00000E+00
 -1       544-8.00000E+00 2.02069E+01 0.00000E+00
 -1       545-8.00000E+00 2.12241E+01 0.00000E+00
 -1       546-8.00000E+00 2.22414E+01 0.00000E+00
 -1       547-8.00000E+00 2.32586E+01 0.00000E+00
 -1       548-8.00000E+00 2.42759E+01 0.00000E+00
 -1       549-8.00000E+00 2.52931E+01 0.00000E+00
 -1       550-8.00000E+00 2.63103E+01 0.00000E+00
 -1       551-8.00000E+00 2.73276E+01 0.00000E+00
 -1       552-8.00000E+00 2.83448E+01 0.00000E+00
 -1       553-8.00000E+00 2.93621E+01 0.00000E+00
 -1       554-8.00000E+00 3.03793E+01 0.00000E+00
 -1       555-8.00000E+00 3.13966E+01 0.00000E+00
 -1       556-8.00000E+00 3.24138E+01 0.00000E+00
 -1       557-8.00000E+00 3.34310E+01 0.00000E+00
 -1       558-8.00000E+00 3.44483E+01 0.00000E+00
 -1       559-8.00000E+00 3.54655E+01 0.00000E+00
 -1       560-8.00000E+00 3.64828E+01 0.00000E+00
 -1       561 8.00000E+00 9.01724E+00 0.00000E+00
 -1       562 8.00000E+00 1.00345E+01 0.00000E+00
 -1       563 8.00000E+00 1.10517E+01 0.00000E+00
 -1       564 8.00000E+00 1.20690E+01 0.00000E+00
 -1       565 8.00000E+00 1.30862E+01 0.00000E+00
 -1       566 8.00000E+00 1.41034E+01 0.00000E+00
 -1       567 8.00000E+00 1.51207E+01 0.00000E+00
 -1       568 8.00000E+00 1.61379E+01 0.00000E+00
 -1       569 8.00000E+00 1.71552E+01 0.00000E+00
 -1       570 8.00000E+00 1.81724E+01 0.00000E+00
 -1       571 8.00000E+00 1.91897E+01 0.00000E+00
 -1       572 8.00000E+00 2.02069E+01 0.00000E+00
 -1       573 8.00000E+00 2.12241E+01 0.00000E+00
 -1       574 8.00000E+00 2.22414E+01 0.00000E+00
 -1       575 8.00000E+00 2.32586E+01 0.00000E+00
 -1       576 8.00000E+00 2.42759E+01 0.00000E+00
 -1       577 8.00000E+00 2.52931E+01 0.00000E+00
 -1       578 8.00000E+00 2.63103E+01 0.00000E+00
 -1       579 8.00000E+00 2.73276E+01 0.00000E+00
 -1       580 8.00000E+00 2.83448E+01 0.00000E+00
 -1       581 8.00000E+00 2.93621E+01 0.00000E+00
 -1       582 8.00000E+00 3.03793E+01 0.00000E+00