# vtk DataFile Version 5.1
vtk output
ASCII
DATASET UNSTRUCTURED_GRID
POINTS 4256 float
1.875 1.875 0 1.875 -1.875 0 -1.875 -1.875 0 
-1.875 1.875 0 8 8 0 8 -8 0 
-8 -8 0 -8 8 0 25 37.5 0 
25 8 0 25 -8 0 25 -37.5 0 
8 -37.5 0 -8 -37.5 0 -25 -37.5 0 
-25 -8 0 -25 8 0 -25 37.5 0 
-8 37.5 0 8 37.5 0 7.2287 7.2287 0 
6.53452 6.53452 0 5.90976 5.90976 0 5.34748 5.34748 0 
4.84143 4.84143 0 4.38598 4.38598 0 3.97608 3.97608 0 
3.60717 3.60717 0 3.27514 3.27514 0 2.97633 2.97633 0 
2.70739 2.70739 0 2.46534 2.46534 0 2.24751 2.24751 0 
2.05145 2.05145 0 7.2287 -7.2287 0 6.53452 -6.53452 0 
5.90976 -5.90976 0 5.34748 -5.34748 0 4.84143 -4.84143 0 
4.38598 -4.38598 0 3.97608 -3.97608 0 3.60717 -3.60717 0 
3.27514 -3.27514 0 2.97633 -2.97633 0 2.70739 -2.70739 0 
2.46534 -2.46534 0 2.24751 -2.24751 0 2.05145 -2.05145 0 
-7.2287 -7.2287 0 -6.53452 -6.53452 0 -5.90976 -5.90976 0 
-5.34748 -5.34748 0 -4.84143 -4.84143 0 -4.38598 -4.38598 0 
-3.97608 -3.97608 0 -3.60717 -3.60717 0 -3.27514 -3.27514 0 
-2.97633 -2.97633 0 -2.70739 -2.70739 0 -2.46534 -2.46534 0 
-2.24751 -2.24751 0 -2.05145 -2.05145 0 -7.2287 7.2287 0 
-6.53452 6.53452 0 -5.90976 5.90976 0 -5.34748 5.34748 0 
-4.84143 4.84143 0 -4.38598 4.38598 0 -3.97608 3.97608 0 
-3.60717 3.60717 0 -3.27514 3.27514 0 -2.97633 2.97633 0 
-2.70739 2.70739 0 -2.46534 2.46534 0 -2.24751 2.24751 0 
-2.05145 2.05145 0 2.06072 1.66874 0 2.22386 1.44419 0 
2.36264 1.20382 0 2.47553 0.950267 0 2.5613 0.686298 0 
2.619 0.41481 0 2.64802 0.138777 0 2.64802 -0.138777 0 
2.619 -0.41481 0 2.5613 -0.686298 0 2.47553 -0.950267 0 
2.36264 -1.20382 0 2.22386 -1.44419 0 2.06072 -1.66874 0 
1.66874 -2.06072 0 1.44419 -2.22386 0 1.20382 -2.36264 0 
0.950267 -2.47553 0 0.686298 -2.5613 0 0.41481 -2.619 0 
0.138777 -2.64802 0 -0.138777 -2.64802 0 -0.41481 -2.619 0 
-0.686298 -2.5613 0 -0.950267 -2.47553 0 -1.20382 -2.36264 0 
-1.44419 -2.22386 0 -1.66874 -2.06072 0 -2.06072 -1.66874 0 
-2.22386 -1.44419 0 -2.36264 -1.20382 0 -2.47553 -0.950267 0 
-2.5613 -0.686298 0 -2.619 -0.41481 0 -2.64802 -0.138777 0 
-2.64802 0.138777 0 -2.619 0.41481 0 -2.5613 0.686298 0 
-2.47553 0.950267 0 -2.36264 1.20382 0 -2.22386 1.44419 0 
-2.06072 1.66874 0 -1.66874 2.06072 0 -1.44419 2.22386 0 
-1.20382 2.36264 0 -0.950267 2.47553 0 -0.686298 2.5613 0 
-0.41481 2.619 0 -0.138777 2.64802 0 0.138777 2.64802 0 
0.41481 2.619 0 0.686298 2.5613 0 0.950267 2.47553 0 
1.20382 2.36264 0 1.44419 2.22386 0 1.66874 2.06072 0 
8 6.93333 0 8 5.86667 0 8 4.8 0 
8 3.73333 0 8 2.66667 0 8 1.6 0 
8 0.533333 0 8 -0.533333 0 8 -1.6 0 
8 -2.66667 0 8 -3.73333 0 8 -4.8 0 
8 -5.86667 0 8 -6.93333 0 6.93333 -8 0 
5.86667 -8 0 4.8 -8 0 3.73333 -8 0 
2.66667 -8 0 1.6 -8 0 0.533333 -8 0 
-0.533333 -8 0 -1.6 -8 0 -2.66667 -8 0 
-3.73333 -8 0 -4.8 -8 0 -5.86667 -8 0 
-6.93333 -8 0 -8 -6.93333 0 -8 -5.86667 0 
-8 -4.8 0 -8 -3.73333 0 -8 -2.66667 0 
-8 -1.6 0 -8 -0.533333 0 -8 0.533333 0 
-8 1.6 0 -8 2.66667 0 -8 3.73333 0 
-8 4.8 0 -8 5.86667 0 -8 6.93333 0 
-6.93333 8 0 -5.86667 8 0 -4.8 8 0 
-3.73333 8 0 -2.66667 8 0 -1.6 8 0 
-0.533333 8 0 0.533333 8 0 1.6 8 0 
2.66667 8 0 3.73333 8 0 4.8 8 0 
5.86667 8 0 6.93333 8 0 25 36.4828 0 
25 35.4655 0 25 34.4483 0 25 33.431 0 
25 32.4138 0 25 31.3966 0 25 30.3793 0 
25 29.3621 0 25 28.3448 0 25 27.3276 0 
25 26.3103 0 25 25.2931 0 25 24.2759 0 
25 23.2586 0 25 22.2414 0 25 21.2241 0 
25 20.2069 0 25 19.1897 0 25 18.1724 0 
25 17.1552 0 25 16.1379 0 25 15.1207 0 
25 14.1034 0 25 13.0862 0 25 12.069 0 
25 11.0517 0 25 10.0345 0 25 9.01724 0 
25 6.93333 0 25 5.86667 0 25 4.8 0 
25 3.73333 0 25 2.66667 0 25 1.6 0 
25 0.533333 0 25 -0.533333 0 25 -1.6 0 
25 -2.66667 0 25 -3.73333 0 25 -4.8 0 
25 -5.86667 0 25 -6.93333 0 25 -9.01724 0 
25 -10.0345 0 25 -11.0517 0 25 -12.069 0 
25 -13.0862 0 25 -14.1034 0 25 -15.1207 0 
25 -16.1379 0 25 -17.1552 0 25 -18.1724 0 
25 -19.1897 0 25 -20.2069 0 25 -21.2241 0 
25 -22.2414 0 25 -23.2586 0 25 -24.2759 0 
25 -25.2931 0 25 -26.3103 0 25 -27.3276 0 
25 -28.3448 0 25 -29.3621 0 25 -30.3793 0 
25 -31.3966 0 25 -32.4138 0 25 -33.431 0 
25 -34.4483 0 25 -35.4655 0 25 -36.4828 0 
23.9375 -37.5 0 22.875 -37.5 0 21.8125 -37.5 0 
20.75 -37.5 0 19.6875 -37.5 0 18.625 -37.5 0 
17.5625 -37.5 0 16.5 -37.5 0 15.4375 -37.5 0 
14.375 -37.5 0 13.3125 -37.5 0 12.25 -37.5 0 
11.1875 -37.5 0 10.125 -37.5 0 9.0625 -37.5 0 
6.93333 -37.5 0 5.86667 -37.5 0 4.8 -37.5 0 
3.73333 -37.5 0 2.66667 -37.5 0 1.6 -37.5 0 
0.533333 -37.5 0 -0.533333 -37.5 0 -1.6 -37.5 0 
-2.66667 -37.5 0 -3.73333 -37.5 0 -4.8 -37.5 0 
-5.86667 -37.5 0 -6.93333 -37.5 0 -9.0625 -37.5 0 
-10.125 -37.5 0 -11.1875 -37.5 0 -12.25 -37.5 0 
-13.3125 -37.5 0 -14.375 -37.5 0 -15.4375 -37.5 0 
-16.5 -37.5 0 -17.5625 -37.5 0 -18.625 -37.5 0 
-19.6875 -37.5 0 -20.75 -37.5 0 -21.8125 -37.5 0 
-22.875 -37.5 0 -23.9375 -37.5 0 -25 -36.4828 0 
-25 -35.4655 0 -25 -34.4483 0 -25 -33.431 0 
-25 -32.4138 0 -25 -31.3966 0 -25 -30.3793 0 
-25 -29.3621 0 -25 -28.3448 0 -25 -27.3276 0 
-25 -26.3103 0 -25 -25.2931 0 -25 -24.2759 0 
-25 -23.2586 0 -25 -22.2414 0 -25 -21.2241 0 
-25 -20.2069 0 -25 -19.1897 0 -25 -18.1724 0 
-25 -17.1552 0 -25 -16.1379 0 -25 -15.1207 0 
-25 -14.1034 0 -25 -13.0862 0 -25 -12.069 0 
-25 -11.0517 0 -25 -10.0345 0 -25 -9.01724 0 
-25 -6.93333 0 -25 -5.86667 0 -25 -4.8 0 
-25 -3.73333 0 -25 -2.66667 0 -25 -1.6 0 
-25 -0.533333 0 -25 0.533333 0 -25 1.6 0 
-25 2.66667 0 -25 3.73333 0 -25 4.8 0 
-25 5.86667 0 -25 6.93333 0 -25 9.01724 0 
-25 10.0345 0 -25 11.0517 0 -25 12.069 0 
-25 13.0862 0 -25 14.1034 0 -25 15.1207 0 
-25 16.1379 0 -25 17.1552 0 -25 18.1724 0 
-25 19.1897 0 -25 20.2069 0 -25 21.2241 0 
-25 22.2414 0 -25 23.2586 0 -25 24.2759 0 
-25 25.2931 0 -25 26.3103 0 -25 27.3276 0 
-25 28.3448 0 -25 29.3621 0 -25 30.3793 0 
-25 31.3966 0 -25 32.4138 0 -25 33.431 0 
-25 34.4483 0 -25 35.4655 0 -25 36.4828 0 
-23.9375 37.5 0 -22.875 37.5 0 -21.8125 37.5 0 
-20.75 37.5 0 -19.6875 37.5 0 -18.625 37.5 0 
-17.5625 37.5 0 -16.5 37.5 0 -15.4375 37.5 0 
-14.375 37.5 0 -13.3125 37.5 0 -12.25 37.5 0 
-11.1875 37.5 0 -10.125 37.5 0 -9.0625 37.5 0 
-6.93333 37.5 0 -5.86667 37.5 0 -4.8 37.5 0 
-3.73333 37.5 0 -2.66667 37.5 0 -1.6 37.5 0 
-0.533333 37.5 0 0.533333 37.5 0 1.6 37.5 0 
2.66667 37.5 0 3.73333 37.5 0 4.8 37.5 0 
5.86667 37.5 0 6.93333 37.5 0 9.0625 37.5 0 
10.125 37.5 0 11.1875 37.5 0 12.25 37.5 0 
13.3125 37.5 0 14.375 37.5 0 15.4375 37.5 0 
16.5 37.5 0 17.5625 37.5 0 18.625 37.5 0 
19.6875 37.5 0 20.75 37.5 0 21.8125 37.5 0 
22.875 37.5 0 23.9375 37.5 0 9.0625 8 0 
10.125 8 0 11.1875 8 0 12.25 8 0 
13.3125 8 0 14.375 8 0 15.4375 8 0 
16.5 8 0 17.5625 8 0 18.625 8 0 
19.6875 8 0 20.75 8 0 21.8125 8 0 
22.875 8 0 23.9375 8 0 9.0625 -8 0 
10.125 -8 0 11.1875 -8 0 12.25 -8 0 
13.3125 -8 0 14.375 -8 0 15.4375 -8 0 
16.5 -8 0 17.5625 -8 0 18.625 -8 0 
19.6875 -8 0 20.75 -8 0 21.8125 -8 0 
22.875 -8 0 23.9375 -8 0 8 -9.01724 0 
8 -10.0345 0 8 -11.0517 0 8 -12.069 0 
8 -13.0862 0 8 -14.1034 0 8 -15.1207 0 
8 -16.1379 0 8 -17.1552 0 8 -18.1724 0 
8 -19.1897 0 8 -20.2069 0 8 -21.2241 0 
8 -22.2414 0 8 -23.2586 0 8 -24.2759 0 
8 -25.2931 0 8 -26.3103 0 8 -27.3276 0 
8 -28.3448 0 8 -29.3621 0 8 -30.3793 0 
8 -31.3966 0 8 -32.4138 0 8 -33.431 0 
8 -34.4483 0 8 -35.4655 0 8 -36.4828 0 
-8 -9.01724 0 -8 -10.0345 0 -8 -11.0517 0 
-8 -12.069 0 -8 -13.0862 0 -8 -14.1034 0 
-8 -15.1207 0 -8 -16.1379 0 -8 -17.1552 0 
-8 -18.1724 0 -8 -19.1897 0 -8 -20.2069 0 
-8 -21.2241 0 -8 -22.2414 0 -8 -23.2586 0 
-8 -24.2759 0 -8 -25.2931 0 -8 -26.3103 0 
-8 -27.3276 0 -8 -28.3448 0 -8 -29.3621 0 
-8 -30.3793 0 -8 -31.3966 0 -8 -32.4138 0 
-8 -33.431 0 -8 -34.4483 0 -8 -35.4655 0 
-8 -36.4828 0 -9.0625 -8 0 -10.125 -8 0 
-11.1875 -8 0 -12.25 -8 0 -13.3125 -8 0 
-14.375 -8 0 -15.4375 -8 0 -16.5 -8 0 
-17.5625 -8 0 -18.625 -8 0 -19.6875 -8 0 
-20.75 -8 0 -21.8125 -8 0 -22.875 -8 0 
-23.9375 -8 0 -9.0625 8 0 -10.125 8 0 
-11.1875 8 0 -12.25 8 0 -13.3125 8 0 
-14.375 8 0 -15.4375 8 0 -16.5 8 0 
-17.5625 8 0 -18.625 8 0 -19.6875 8 0 
-20.75 8 0 -21.8125 8 0 -22.875 8 0 
-23.9375 8 0 -8 9.01724 0 -8 10.0345 0 
-8 11.0517 0 -8 12.069 0 -8 13.0862 0 
-8 14.1034 0 -8 15.1207 0 -8 16.1379 0 
-8 17.1552 0 -8 18.1724 0 -8 19.1897 0 
-8 20.2069 0 -8 21.2241 0 -8 22.2414 0 
-8 23.2586 0 -8 24.2759 0 -8 25.2931 0 
-8 26.3103 0 -8 27.3276 0 -8 28.3448 0 
-8 29.3621 0 -8 30.3793 0 -8 31.3966 0 
-8 32.4138 0 -8 33.431 0 -8 34.4483 0 
-8 35.4655 0 -8 36.4828 0 8 9.01724 0 
8 10.0345 0 8 11.0517 0 8 12.069 0 
8 13.0862 0 8 14.1034 0 8 15.1207 0 
8 16.1379 0 8 17.1552 0 8 18.1724 0 
8 19.1897 0 8 20.2069 0 8 21.2241 0 
8 22.2414 0 8 23.2586 0 8 24.2759 0 
8 25.2931 0 8 26.3103 0 8 27.3276 0 
8 28.3448 0 8 29.3621 0 8 30.3793 0 
8 31.3966 0 8 32.4138 0 8 33.431 0 
8 34.4483 0 8 35.4655 0 8 36.4828 0 
2.23182 1.8204 0 2.39026 1.5716 0 2.52504 1.30742 0 
2.63468 1.03044 0 2.71798 0.743348 0 2.77402 0.448953 0 
2.8022 0.150143 0 2.8022 -0.150143 0 2.77402 -0.448953 0 
2.71798 -0.743348 0 2.63468 -1.03044 0 2.52504 -1.30742 0 
2.39026 -1.5716 0 2.23182 -1.8204 0 2.42193 1.98892 0 
2.57515 1.71315 0 2.70549 1.42253 0 2.81151 1.11952 0 
2.89206 0.806738 0 2.94626 0.486889 0 2.97351 0.162772 0 
2.97351 -0.162772 0 2.94626 -0.486889 0 2.89206 -0.806738 0 
2.81151 -1.11952 0 2.70549 -1.42253 0 2.57515 -1.71315 0 
2.42193 -1.98892 0 2.63316 2.17615 0 2.78058 1.87044 0 
2.90598 1.55043 0 3.00799 1.21851 0 3.08549 0.877171 0 
3.13764 0.529041 0 3.16386 0.176805 0 3.16386 -0.176805 0 
3.13764 -0.529041 0 3.08549 -0.877171 0 3.00799 -1.21851 0 
2.90598 -1.55043 0 2.78058 -1.87044 0 2.63316 -2.17615 0 
2.86787 2.3842 0 3.00884 2.04521 0 3.12876 1.69254 0 
3.22631 1.32849 0 3.30042 0.95543 0 3.35028 0.575877 0 
3.37535 0.192397 0 3.37535 -0.192397 0 3.35028 -0.575877 0 
3.30042 -0.95543 0 3.22631 -1.32849 0 3.12876 -1.69254 0 
3.00884 -2.04521 0 2.86787 -2.3842 0 3.12865 2.61536 0 
3.26246 2.23939 0 3.37628 1.85045 0 3.46887 1.45068 0 
3.53922 1.04238 0 3.58655 0.627917 0 3.61035 0.209721 0 
3.61035 -0.209721 0 3.58655 -0.627917 0 3.53922 -1.04238 0 
[...]
POINT_DATA 4256
FIELD FieldData 5
U 3 4256 double
0.0016167 0.0192614 0 0.00161888 0.0142524 0 0.00331662 0.0142524 0 
0.0033188 0.0192614 0 0.00136655 0.0205755 0 0.0013513 0.0128971 0 
0.00358419 0.0128971 0 0.00356895 0.0205755 0 0.00246775 0.0330955 0 
-0.0010207 0.0199744 0 -0.00106109 0.0131783 0 -0.000744143 0 0 
0.00147023 0 0 0.00346527 0 0 0.00567964 0 0 
0.00599659 0.0131783 0 0.0059562 0.0199744 0 0.00246775 0.0330955 0 
0.00246775 0.0330955 0 0.00246775 0.0330955 0 0.00146076 0.0202706 0 
0.00154581 0.0200013 0 0.0016218 0.0197655 0 0.00168883 0.0195612 0 
0.00174684 0.0193867 0 0.00179564 0.0192409 0 0.00183485 0.0191228 0 
0.00186379 0.019032 0 0.00188142 0.0189687 0 0.00188625 0.0189336 0 
0.00187621 0.018928 0 0.00184851 0.0189542 0 0.00179946 0.0190154 0 
0.00172431 0.0191159 0 0.00144927 0.0132101 0 0.00153716 0.013486 0 
0.0016153 0.0137271 0 0.00168394 0.0139357 0 0.00174319 0.0141135 0 
0.00179297 0.0142621 0 0.00183295 0.0143824 0 0.00186252 0.0144749 0 
0.00188071 0.0145396 0 0.00188603 0.0145759 0 0.00187645 0.0145825 0 
0.0018492 0.0145571 0 0.00180063 0.0144967 0 0.00172595 0.014397 0 
0.00348623 0.0132101 0 0.00339833 0.013486 0 0.00332019 0.0137271 0 
0.00325155 0.0139357 0 0.0031923 0.0141135 0 0.00314253 0.0142621 0 
0.00310255 0.0143824 0 0.00307297 0.0144749 0 0.00305479 0.0145396 0 
0.00304946 0.0145759 0 0.00305904 0.0145825 0 0.00308629 0.0145571 0 
0.00313487 0.0144967 0 0.00320954 0.014397 0 0.00347473 0.0202706 0 
0.00338969 0.0200013 0 0.00331369 0.0197655 0 0.00324667 0.0195612 0 
0.00318866 0.0193867 0 0.00313985 0.0192409 0 0.00310065 0.0191228 0 
0.00307171 0.019032 0 0.00305408 0.0189687 0 0.00304925 0.0189336 0 
0.00305929 0.018928 0 0.00308699 0.0189542 0 0.00313603 0.0190154 0 
0.00321119 0.0191159 0 0.00153119 0.0189871 0 0.00145522 0.0186869 0 
0.00139025 0.018365 0 0.00133707 0.0180252 0 0.0012964 0.0176715 0 
0.00126892 0.0173078 0 0.00125515 0.0169381 0 0.00125539 0.0165666 0 
0.00126963 0.0161974 0 0.00129754 0.0158344 0 0.00133859 0.0154818 0 
0.00139207 0.0151435 0 0.00145726 0.0148233 0 0.00153334 0.0145249 0 
0.00171109 0.0140053 0 0.00181251 0.0137874 0 0.00192141 0.0136016 0 
0.00203645 0.01345 0 0.00215626 0.0133345 0 0.00227949 0.0132566 0 
0.00240477 0.0132173 0 0.00253073 0.0132173 0 0.00265601 0.0132566 0 
0.00277923 0.0133345 0 0.00289905 0.01345 0 0.00301408 0.0136016 0 
0.00312299 0.0137874 0 0.00322441 0.0140053 0 0.00340215 0.0145249 0 
0.00347824 0.0148233 0 0.00354342 0.0151435 0 0.00359691 0.0154818 0 
0.00363795 0.0158344 0 0.00366587 0.0161974 0 0.0036801 0.0165666 0 
0.00368035 0.0169381 0 0.00366658 0.0173078 0 0.0036391 0.0176715 0 
0.00359843 0.0180252 0 0.00354524 0.018365 0 0.00348027 0.0186869 0 
0.00340431 0.0189871 0 0.00322653 0.0195104 0 0.00312496 0.0197302 0 
0.00301582 0.0199177 0 0.00290048 0.0200707 0 0.0027803 0.0201873 0 
0.00265667 0.020266 0 0.00253095 0.0203057 0 0.00240454 0.0203057 0 
0.00227883 0.020266 0 0.0021552 0.0201873 0 0.00203502 0.0200707 0 
0.00191967 0.0199177 0 0.00181054 0.0197302 0 0.00170896 0.0195104 0 
0.0013147 0.0200639 0 0.00124868 0.0195443 0 0.00116733 0.0190198 0 
0.00107391 0.0184954 0 0.000978171 0.0179775 0 0.000896825 0.0174707 0 
0.000849262 0.016975 0 0.000848942 0.0164841 0 0.000895759 0.0159889 0 
0.000976067 0.0154831 0 0.00107034 0.0149666 0 0.0011618 0.0144441 0 
0.00124058 0.013922 0 0.00130337 0.0134053 0 0.00152971 0.0128205 0 
0.00170939 0.0127245 0 0.00188514 0.0126088 0 0.00204965 0.012479 0 
0.00219528 0.0123488 0 0.00231775 0.0122401 0 0.00242038 0.0121774 0 
0.00251511 0.0121774 0 0.00261775 0.0122401 0 0.00274022 0.0123488 0 
0.00288584 0.012479 0 0.00305036 0.0126088 0 0.00322611 0.0127245 0 
0.00340578 0.0128205 0 0.00363212 0.0134053 0 0.00369492 0.013922 0 
0.0037737 0.0144441 0 0.00386515 0.0149666 0 0.00395943 0.0154831 0 
0.00403974 0.0159889 0 0.00408655 0.0164841 0 0.00408623 0.016975 0 
0.00403867 0.0174707 0 0.00395733 0.0179775 0 0.00386159 0.0184954 0 
0.00376816 0.0190198 0 0.00368682 0.0195443 0 0.00362079 0.0200639 0 
0.003392 0.0206666 0 0.003214 0.0207754 0 0.00304011 0.020902 0 
0.00287763 0.0210408 0 0.00273419 0.0211778 0 0.00261405 0.0212911 0 
0.00251387 0.0213562 0 0.00242163 0.0213562 0 0.00232145 0.0212911 0 
0.00220131 0.0211778 0 0.00205787 0.0210408 0 0.00189538 0.020902 0 
0.0017215 0.0207754 0 0.0015435 0.0206666 0 0.00192984 0.0323273 0 
0.00158006 0.0317427 0 0.00128654 0.0312343 0 0.00104073 0.0307586 0 
0.000828169 0.0303024 0 0.000642005 0.0298583 0 0.000477369 0.0294223 0 
0.000330806 0.0289917 0 0.00019966 0.0285646 0 8.18121e-05 0.0281396 0 
-2.44866e-05 0.0277157 0 -0.000120716 0.0272923 0 -0.000208154 0.0268687 0 
-0.000287917 0.0264445 0 -0.000360997 0.0260195 0 -0.000428274 0.0255933 0 
-0.000490538 0.0251659 0 -0.000548492 0.0247373 0 -0.000602761 0.0243073 0 
-0.00065389 0.0238762 0 -0.000702344 0.023444 0 -0.000748507 0.023011 0 
-0.000792676 0.0225772 0 -0.000835056 0.022143 0 -0.000875761 0.0217086 0 
-0.000914805 0.0212743 0 -0.000952108 0.0208403 0 -0.000987494 0.020407 0 
-0.00105284 0.0195218 0 -0.0010818 0.0190703 0 -0.00110711 0.0186198 0 
-0.00112833 0.0181703 0 -0.00114504 0.0177215 0 -0.00115692 0.0172729 0 
-0.00116377 0.0168243 0 -0.00116554 0.0163751 0 -0.00116231 0.0159248 0 
-0.00115434 0.015473 0 -0.00114203 0.0150191 0 -0.00112592 0.014563 0 
-0.0011066 0.0141042 0 -0.00108477 0.0136426 0 -0.00103745 0.0127329 0 
-0.00101329 0.0122852 0 -0.000989137 0.0118353 0 -0.000965408 0.0113835 0 
-0.000942465 0.01093 0 -0.00092059 0.0104752 0 -0.000899995 0.0100192 0 
-0.000880825 0.00956238 0 -0.000863168 0.00910497 0 -0.000847057 0.00864721 0 
-0.000832488 0.00818927 0 -0.000819422 0.00773134 0 -0.000807795 0.00727355 0 
-0.000797524 0.00681601 0 -0.000788517 0.00635882 0 -0.000780672 0.00590203 0 
-0.000773888 0.00544568 0 -0.000768061 0.0049898 0 -0.000763094 0.00453438 0 
-0.000758893 0.00407944 0 -0.000755372 0.00362493 0 -0.000752452 0.00317084 0 
-0.000750065 0.00271712 0 -0.000748147 0.00226374 0 -0.000746649 0.00181064 0 
-0.000745528 0.00135777 0 -0.00074475 0.000905084 0 -0.000744293 0.000452512 0 
-0.00060243 0 0 -0.000460913 0 0 -0.000319679 0 0 
-0.000178799 0 0 -3.8335e-05 0 0 0.000101663 0 0 
0.000241153 0 0 0.000380099 0 0 0.000518474 0 0 
0.000656256 0 0 0.000793431 0 0 0.000929992 0 0 
0.00106594 0 0 0.00120128 0 0 0.00133603 0 0 
0.00160442 0 0 0.00173812 0 0 0.0018714 0 0 
0.00200432 0 0 0.00213694 0 0 0.00226935 0 0 
0.00240163 0 0 0.00253387 0 0 0.00266615 0 0 
0.00279856 0 0 0.00293118 0 0 0.00306409 0 0 
0.00319737 0 0 0.00333108 0 0 0.00359946 0 0 
0.00373422 0 0 0.00386956 0 0 0.0040055 0 0 
0.00414207 0 0 0.00427924 0 0 0.00441702 0 0 
0.0045554 0 0 0.00469434 0 0 0.00483383 0 0 
0.00497383 0 0 0.0051143 0 0 0.00525517 0 0 
0.00539641 0 0 0.00553793 0 0 0.00567979 0.000452512 0 
0.00568025 0.000905084 0 0.00568102 0.00135777 0 0.00568215 0.00181064 0 
0.00568364 0.00226374 0 0.00568556 0.00271712 0 0.00568795 0.00317084 0 
0.00569087 0.00362493 0 0.00569439 0.00407944 0 0.00569859 0.00453438 0 
0.00570356 0.0049898 0 0.00570938 0.00544568 0 0.00571617 0.00590203 0 
0.00572401 0.00635882 0 0.00573302 0.00681601 0 0.00574329 0.00727355 0 
0.00575492 0.00773134 0 0.00576798 0.00818927 0 0.00578255 0.00864721 0 
0.00579866 0.00910497 0 0.00581632 0.00956238 0 0.00583549 0.0100192 0 
0.00585609 0.0104752 0 0.00587796 0.01093 0 0.0059009 0.0113835 0 
0.00592463 0.0118353 0 0.00594879 0.0122852 0 0.00597294 0.0127329 0 
0.00602026 0.0136426 0 0.0060421 0.0141042 0 0.00606141 0.014563 0 
0.00607753 0.0150191 0 0.00608983 0.015473 0 0.0060978 0.0159248 0 
0.00610103 0.0163751 0 0.00609927 0.0168243 0 0.00609242 0.0172729 0 
0.00608053 0.0177215 0 0.00606382 0.0181703 0 0.00604261 0.0186198 0 
0.0060173 0.0190703 0 0.00598834 0.0195218 0 0.00592299 0.020407 0 
0.0058876 0.0208403 0 0.0058503 0.0212743 0 0.00581126 0.0217086 0 
0.00577055 0.022143 0 0.00572817 0.0225772 0 0.005684 0.023011 0 
0.00563784 0.023444 0 0.00558939 0.0238762 0 0.00553826 0.0243073 0 
0.00548399 0.0247373 0 0.00542603 0.0251659 0 0.00536377 0.0255933 0 
0.00529649 0.0260195 0 0.00522341 0.0264445 0 0.00514365 0.0268687 0 
0.00505621 0.0272923 0 0.00495998 0.0277157 0 0.00485368 0.0281396 0 
0.00473584 0.0285646 0 0.00460469 0.0289917 0 0.00445813 0.0294223 0 
0.00429349 0.0298583 0 0.00410733 0.0303024 0 0.00389476 0.0307586 0 
0.00364896 0.0312343 0 0.00335544 0.0317427 0 0.00300566 0.0323273 0 
0.00246775 0.0330955 0 0.00246775 0.0330955 0 0.00246775 0.0330955 0 
0.00246775 0.0330955 0 0.00246775 0.0330955 0 0.00246775 0.0330955 0 
0.00246775 0.0330955 0 0.00246775 0.0330955 0 0.00246775 0.0330955 0 
0.00246775 0.0330955 0 0.00246775 0.0330955 0 0.00246775 0.0330955 0 
0.00246775 0.0330955 0 0.00246775 0.0330955 0 0.00246775 0.0330955 0 
0.00246775 0.0330955 0 0.00246775 0.0330955 0 0.00246775 0.0330955 0 
0.00246775 0.0330955 0 0.00246775 0.0330955 0 0.00246775 0.0330955 0 
0.00246775 0.0330955 0 0.00246775 0.0330955 0 0.00246775 0.0330955 0 
0.00246775 0.0330955 0 0.00246775 0.0330955 0 0.00246775 0.0330955 0 
0.00246775 0.0330955 0 0.00246775 0.0330955 0 0.00246775 0.0330955 0 
0.00246775 0.0330955 0 0.00246775 0.0330955 0 0.00246775 0.0330955 0 
0.00246775 0.0330955 0 0.00246775 0.0330955 0 0.00246775 0.0330955 0 
0.00246775 0.0330955 0 0.00246775 0.0330955 0 0.00246775 0.0330955 0 
0.00246775 0.0330955 0 0.00246775 0.0330955 0 0.00246775 0.0330955 0 
0.00246775 0.0330955 0 0.00246775 0.0330955 0 0.00119264 0.0205037 0 
0.0010239 0.0204435 0 0.000860265 0.0203929 0 0.000701234 0.0203495 0 
0.000546167 0.0203111 0 0.000394422 0.0202763 0 0.000245432 0.0202439 0 
9.87354e-05 0.0202132 0 -4.60289e-05 0.0201834 0 -0.000189128 0.0201543 0 
-0.000330756 0.0201254 0 -0.00047105 0.0200965 0 -0.000610108 0.0200673 0 
-0.000748011 0.0200376 0 -0.000884838 0.0200068 0 0.00117593 0.0129524 0 
0.00100591 0.0129945 0 0.000841157 0.0130255 0 0.000681132 0.0130481 0 
0.000525167 0.0130645 0 0.000372575 0.0130765 0 0.00022274 0.0130854 0 
7.51408e-05 0.0130924 0 -7.06463e-05 0.0130984 0 -0.000214956 0.0131042 0 
-0.00035805 0.0131106 0 -0.000500128 0.0131183 0 -0.000641349 0.013128 0 
-0.000781839 0.0131406 0 -0.000921712 0.013157 0 0.00138294 0.0124184 0 
0.00140632 0.0119479 0 0.00142306 0.0114844 0 0.00143499 0.0110267 0 
0.00144354 0.0105735 0 0.00144971 0.0101241 0 0.00145423 0.00967738 0 
0.00145761 0.00923286 0 0.00146018 0.00878996 0 0.00146219 0.00834828 0 
0.00146379 0.00790749 0 0.00146508 0.00746735 0 0.00146614 0.00702766 0 
0.00146701 0.00658829 0 0.00146773 0.00614912 0 0.00146832 0.00571007 0 
0.00146879 0.00527108 0 0.00146918 0.00483209 0 0.00146948 0.00439308 0 
0.00146971 0.00395403 0 0.00146988 0.00351492 0 0.00147001 0.00307575 0 
0.0014701 0.0026365 0 0.00147015 0.0021972 0 0.00147019 0.00175784 0 
0.00147021 0.00131842 0 0.00147022 0.00087897 0 0.00147023 0.000439492 0 
0.00355256 0.0124184 0 0.00352918 0.0119479 0 0.00351244 0.0114844 0 
0.0035005 0.0110267 0 0.00349196 0.0105735 0 0.00348579 0.0101241 0 
0.00348127 0.00967738 0 0.00347789 0.00923286 0 0.00347531 0.00878996 0 
0.0034733 0.00834828 0 0.0034717 0.00790749 0 0.00347041 0.00746735 0 
0.00346936 0.00702766 0 0.00346849 0.00658829 0 0.00346777 0.00614912 0 
0.00346718 0.00571007 0 0.0034667 0.00527108 0 0.00346632 0.00483209 0 
0.00346602 0.00439308 0 0.00346579 0.00395403 0 0.00346561 0.00351492 0 
0.00346549 0.00307575 0 0.0034654 0.0026365 0 0.00346534 0.0021972 0 
0.00346531 0.00175784 0 0.00346529 0.00131842 0 0.00346528 0.00087897 0 
0.00346527 0.000439492 0 0.00375957 0.0129524 0 0.00392959 0.0129945 0 
0.00409434 0.0130255 0 0.00425436 0.0130481 0 0.00441033 0.0130645 0 
0.00456292 0.0130765 0 0.00471276 0.0130854 0 0.00486036 0.0130924 0 
0.00500614 0.0130984 0 0.00515045 0.0131042 0 0.00529355 0.0131106 0 
0.00543562 0.0131183 0 0.00557684 0.013128 0 0.00571734 0.0131406 0 
0.00585721 0.013157 0 0.00374286 0.0205037 0 0.0039116 0.0204435 0 
0.00407523 0.0203929 0 0.00423426 0.0203495 0 0.00438933 0.0203111 0 
0.00454107 0.0202763 0 0.00469006 0.0202439 0 0.00483676 0.0202132 0 
0.00498153 0.0201834 0 0.00512462 0.0201543 0 0.00526625 0.0201254 0 
0.00540655 0.0200965 0 0.0055456 0.0200673 0 0.00568351 0.0200376 0 
0.00582033 0.0200068 0 0.00353246 0.0210574 0 0.00350328 0.0215315 0 
0.0034796 0.0219988 0 0.00345941 0.0224604 0 0.00344115 0.0229175 0 
0.00342363 0.0233709 0 0.00340596 0.0238213 0 0.00338747 0.0242693 0 
0.00336764 0.0247152 0 0.00334605 0.0251594 0 0.00332239 0.025602 0 
0.00329637 0.0260429 0 0.00326777 0.0264823 0 0.00323642 0.0269199 0 
0.00320215 0.0273557 0 0.00316488 0.0277894 0 0.00312453 0.0282207 0 
0.00308111 0.0286493 0 0.00303466 0.029075 0 0.00298533 0.0294973 0 
0.0029333 0.0299159 0 0.00287885 0.0303304 0 0.00282235 0.0307406 0 
0.00276422 0.031146 0 0.00270496 0.0315464 0 0.0026451 0.0319417 0 
0.00258523 0.0323317 0 0.00252592 0.0327162 0 0.00140304 0.0210574 0 
0.00143221 0.0215315 0 0.00145589 0.0219988 0 0.00147609 0.0224604 0 
0.00149435 0.0229175 0 0.00151187 0.0233709 0 0.00152953 0.0238213 0 
0.00154802 0.0242693 0 0.00156786 0.0247152 0 0.00158944 0.0251594 0 
0.00161311 0.025602 0 0.00163913 0.0260429 0 0.00166772 0.0264823 0 
0.00169908 0.0269199 0 0.00173334 0.0273557 0 0.00177062 0.0277894 0 
0.00181097 0.0282207 0 0.00185439 0.0286493 0 0.00190083 0.029075 0 
0.00195017 0.0294973 0 0.0020022 0.0299159 0 0.00205664 0.0303304 0 
0.00211314 0.0307406 0 0.00217127 0.031146 0 0.00223054 0.0315464 0 
0.00229039 0.0319417 0 0.00235027 0.0323317 0 0.00240958 0.0327162 0 
0.00161008 0.0188468 0 0.00150269 0.0185603 0 0.00140688 0.0182579 0 
0.0013266 0.017941 0 0.00126458 0.0176116 0 0.00122256 0.0172722 0 
0.0012015 0.0169264 0 0.00120178 0.0165785 0 0.0012234 0.016233 0 
0.00126589 0.0158943 0 0.00132827 0.0155659 0 0.00140877 0.0152503 0 
0.00150465 0.0149493 0 0.00161195 0.0146643 0 0.00167022 0.0187488 0 
0.0015432 0.0184693 0 0.00142546 0.0181781 0 0.00132365 0.0178761 0 
0.00124315 0.0175639 0 0.00118774 0.0172432 0 0.00115969 0.0169166 0 
0.00116 0.0165881 0 0.00118864 0.0162619 0 0.00124453 0.0159417 0 
0.00132534 0.0156304 0 0.00142728 0.0153295 0 0.00154495 0.0150396 0 
0.00167173 0.0147616 0 0.00171348 0.0186875 0 0.00157573 0.01841 0 
0.00144347 0.0181237 0 0.00132542 0.0178297 0 0.00122959 0.0175284 0 
0.00116231 0.0172209 0 0.00112781 0.0169089 0 0.00112813 0.0165954 0 
0.00116322 0.0162837 0 0.00123095 0.0159767 0 0.00132703 0.0156762 0 
0.00144511 0.0153832 0 0.00157719 0.0150982 0 0.00171461 0.0148222 0 
0.0017416 0.0186587 0 0.00159969 0.0183793 0 0.00145897 0.0180927 0 
0.00132949 0.0178009 0 0.00122156 0.017505 0 0.00114422 0.0172054 0 
0.00110401 0.0169033 0 0.00110432 0.0166003 0 0.00114509 0.0162984 0 
0.00122284 0.0159993 0 0.00133095 0.0157041 0 0.00146036 0.0154133 0 
0.00160082 0.015128 0 0.00174232 0.0148501 0 0.00175606 0.0186591 0 
0.00161476 0.0183744 0 0.00147043 0.0180834 0 0.00133378 0.0177891 0 
0.00121692 0.0174933 0 0.00113145 0.0171967 0 0.0010864 0.0168998 0 
0.00108669 0.0166027 0 0.00113225 0.016306 0 0.00121805 0.0160099 0 
0.00133501 0.0157148 0 0.00147152 0.0154215 0 0.00161551 0.0151318 0 
0.00175635 0.0148487 0 0.00175812 0.0186863 0 0.00162078 0.0183934 0 
0.00147662 0.0180943 0 0.00133644 0.0177933 0 0.00121361 0.0174931 0 
0.001122 0.0171948 0 0.00107307 0.0168984 0 0.00107333 0.0166027 0 
0.0011227 0.0163064 0 0.00121457 0.0160087 0 0.0013374 0.0157092 0 
0.00147736 0.0154092 0 0.00162111 0.0151115 0 0.00175794 0.0148202 0 
0.00174877 0.0187389 0 0.00161764 0.0184347 0 0.00147654 0.0181243 0 
0.00133587 0.0178128 0 0.00120978 0.017504 0 0.00111395 0.0171996 0 
0.00106212 0.0168991 0 0.00106233 0.0166001 0 0.00111452 0.0162999 0 
0.00121052 0.0159959 0 0.00133653 0.0156879 0 0.00147689 0.0153775 0 
0.00161752 0.0150686 0 0.00174808 0.0147661 0 0.00172877 0.0188158 0 
0.00160529 0.0184974 0 0.00146934 0.0181726 0 0.00133066 0.0178471 0 
0.00120366 0.0175257 0 0.00110543 0.0172109 0 0.00105165 0.0169018 0 
0.00105182 0.0165951 0 0.00110586 0.0162863 0 0.00120416 0.0159719 0 
0.00133098 0.0156514 0 0.00146926 0.0153271 0 0.00160465 0.0150039 0 
0.00172751 0.0146873 0 0.00169867 0.0189168 0 0.00158363 0.018581 0 
0.00145433 0.0182387 0 0.00131957 0.0178959 0 0.00119368 0.0175581 0 
0.00109468 0.0172286 0 0.00103986 0.0169065 0 0.00103998 0.0165875 0 
0.00109495 0.0162657 0 0.0011939 0.0159368 0 0.00131951 0.0156 0 
0.00145377 0.0152584 0 0.00158243 0.0149178 0 0.00169674 0.014584 0 
0.00165879 0.0190419 0 0.00155256 0.0186855 0 0.00143086 0.0183223 0 
0.00130149 0.0179588 0 0.00117837 0.017601 0 0.00108003 0.0172527 0 
0.001025 0.0169132 0 0.00102506 0.0165774 0 0.00108013 0.0162382 0 
0.0011783 0.0158905 0 0.00130102 0.0155337 0 0.00142978 0.0151716 0 
0.00155072 0.0148102 0 0.00165608 0.0144559 0 0.00160933 0.0191918 0 
0.00151193 0.0188111 0 0.00139836 0.0184238 0 0.00127543 0.018036 0 
0.00115639 0.0176544 0 0.00105994 0.0172831 0 0.00100542 0.0169218 0 
0.00100541 0.0165646 0 0.00105984 0.0162036 0 0.001156 0.0158331 0 
0.0012745 0.0154526 0 0.00139667 0.0150663 0 0.00150931 0.0146808 0 
0.00160564 0.0143025 0 0.00155032 0.0193674 0 0.0014615 0.0189587 0 
0.00135628 0.0185434 0 0.00124046 0.0181277 0 0.00112651 0.0177183 0 
0.00103294 0.01732 0 0.000979543 0.0169323 0 0.000979465 0.0165491 0 
0.00103263 0.0161618 0 0.00112576 0.0157642 0 0.00123902 0.015356 0 
0.00135389 0.0149419 0 0.00145795 0.0145286 0 0.00154539 0.0141224 0 
0.00148167 0.0195702 0 0.00140103 0.0191292 0 0.0013041 0.018682 0 
0.00119573 0.0182343 0 0.00108756 0.0177931 0 0.000997636 0.0173633 0 
0.000945872 0.0169446 0 0.000945719 0.0165307 0 0.000997095 0.0161124 0 
0.00108641 0.0156833 0 0.00119369 0.0152434 0 0.00130086 0.0147976 0 
0.00139631 0.0143525 0 0.00147515 0.0139141 0 0.0014032 0.0198016 0 
0.00133018 0.0193239 0 0.00124124 0.0188404 0 0.00114041 0.0183567 0 
0.00103842 0.0178793 0 0.000952689 0.0174134 0 0.000902954 0.0169588 0 
0.000902721 0.0165091 0 0.000951897 0.016055 0 0.00103682 0.0155899 0 
0.00113768 0.015114 0 0.00123698 0.0146321 0 0.00132398 0.0141509 0 
0.0013946 0.0136759 0 0.00182521 0.0141269 0 0.00192369 0.0138798 0 
0.00202138 0.0136627 0 0.00211898 0.013482 0 0.0022173 0.0133424 0 
0.00231678 0.0132475 0 0.00241729 0.0131995 0 0.00251821 0.0131995 0 
0.00261871 0.0132475 0 0.00271819 0.0133424 0 0.00281652 0.013482 0 
0.00291412 0.0136627 0 0.00301181 0.0138798 0 0.00311028 0.0141269 0 
0.00190615 0.014218 0 0.0020053 0.0139546 0 0.00209777 0.0137165 0 
0.00218456 0.0135133 0 0.00226742 0.0133535 0 0.00234813 0.0132434 0 
0.00242794 0.0131874 0 0.00250755 0.0131874 0 0.00258737 0.0132434 0 
0.00266807 0.0133535 0 0.00275093 0.0135133 0 0.00283772 0.0137165 0 
0.0029302 0.0139546 0 0.00302935 0.014218 0 0.00195998 0.0142798 0 
0.00206191 0.01401 0 0.00215334 0.0137593 0 0.00223447 0.0135402 0 
0.00230703 0.0133642 0 0.00237357 0.0132412 0 0.00243671 0.0131779 0 
0.00249878 0.0131779 0 0.00256192 0.0132412 0 0.00262846 0.0133642 0 
0.00270102 0.0135402 0 0.00278216 0.0137593 0 0.00287359 0.01401 0 
0.00297551 0.0142798 0 0.00199161 0.0143133 0 0.00209742 0.0140446 0 
0.00219063 0.0137885 0 0.00227005 0.0135592 0 0.00233667 0.0133712 0 
0.00239326 0.0132377 0 0.00244362 0.0131683 0 0.00249188 0.0131683 0 
0.00254224 0.0132377 0 0.00259883 0.0133712 0 0.00266545 0.0135592 0 
0.00274487 0.0137885 0 0.00283808 0.0140446 0 0.00294388 0.0143133 0 
0.00200494 0.0143192 0 0.00211516 0.0140572 0 0.00221201 0.0138015 0 
0.00229267 0.0135673 0 0.00235695 0.0133713 0 0.0024074 0.0132298 0 
0.00244869 0.0131555 0 0.0024868 0.0131555 0 0.0025281 0.0132298 0 
0.00257854 0.0133713 0 0.00264283 0.0135673 0 0.00272349 0.0138015 0 
0.00282033 0.0140572 0 0.00293056 0.0143192 0 0.00200301 0.0142982 0 
0.00211793 0.0140468 0 0.00221961 0.0137962 0 0.0023037 0.0135616 0 
0.00236863 0.0133614 0 0.0024163 0.0132144 0 0.00245202 0.0131365 0 
0.00248348 0.0131365 0 0.0025192 0.0132144 0 0.00256687 0.0133614 0 
0.00263179 0.0135616 0 0.00271589 0.0137962 0 0.00281757 0.0140468 0 