<?xml version="1.0"?>
<VTKFile type="UnstructuredGrid" version="0.1" byte_order="LittleEndian">
	<UnstructuredGrid>
		<Piece NumberOfPoints="3120" NumberOfCells="1530">
			<Points>
				<DataArray type="Float64" NumberOfComponents="3" format="ascii">
					 1.00050000E+01	 0.00000000E+00	 0.00000000E+00
					 9.99500000E+00	 0.00000000E+00	 0.00000000E+00
					 1.00050000E+01	 0.00000000E+00	 1.00000000E+02
					 9.99500000E+00	 0.00000000E+00	 1.00000000E+02
					 9.78637000E+00	 2.08016000E+00	 0.00000000E+00
					 9.77659000E+00	 2.07808000E+00	 0.00000000E+00
					 9.14002000E+00	 4.06940000E+00	 0.00000000E+00
					 9.13089000E+00	 4.06533000E+00	 0.00000000E+00
					 8.09422000E+00	 5.88079000E+00	 0.00000000E+00
					 8.08612000E+00	 5.87491000E+00	 0.00000000E+00
					 6.69465000E+00	 7.43516000E+00	 0.00000000E+00
					 6.68796000E+00	 7.42773000E+00	 0.00000000E+00
					 5.00250000E+00	 8.66458000E+00	 0.00000000E+00
					 4.99750000E+00	 8.65592000E+00	 0.00000000E+00
					 3.09172000E+00	 9.51532000E+00	 0.00000000E+00
					 3.08862000E+00	 9.50581000E+00	 0.00000000E+00
					 1.04581000E+00	 9.95019000E+00	 0.00000000E+00
					 1.04476000E+00	 9.94025000E+00	 0.00000000E+00
					-1.04581000E+00	 9.95019000E+00	 0.00000000E+00
					-1.04476000E+00	 9.94025000E+00	 0.00000000E+00
					-3.09172000E+00	 9.51532000E+00	 0.00000000E+00
					-3.08862000E+00	 9.50581000E+00	 0.00000000E+00
					-5.00250000E+00	 8.66458000E+00	 0.00000000E+00
					-4.99750000E+00	 8.65592000E+00	 0.00000000E+00
					-6.69465000E+00	 7.43516000E+00	 0.00000000E+00
					-6.68796000E+00	 7.42773000E+00	 0.00000000E+00
					-8.09422000E+00	 5.88079000E+00	 0.00000000E+00
					-8.08612000E+00	 5.87491000E+00	 0.00000000E+00
					-9.14002000E+00	 4.06940000E+00	 0.00000000E+00
					-9.13089000E+00	 4.06533000E+00	 0.00000000E+00
					-9.78637000E+00	 2.08016000E+00	 0.00000000E+00
					-9.77659000E+00	 2.07808000E+00	 0.00000000E+00
					-1.00050000E+01	-2.09850000E-14	 0.00000000E+00
					-9.99500000E+00	-2.09746000E-14	 0.00000000E+00
					-9.78637000E+00	-2.08016000E+00	 0.00000000E+00
					-9.77659000E+00	-2.07808000E+00	 0.00000000E+00
					-9.14002000E+00	-4.06940000E+00	 0.00000000E+00
					-9.13089000E+00	-4.06533000E+00	 0.00000000E+00
					-8.09422000E+00	-5.88079000E+00	 0.00000000E+00
					-8.08612000E+00	-5.87491000E+00	 0.00000000E+00
					-6.69465000E+00	-7.43516000E+00	 0.00000000E+00
					-6.68796000E+00	-7.42773000E+00	 0.00000000E+00
					-5.00250000E+00	-8.66458000E+00	 0.00000000E+00
					-4.99750000E+00	-8.65592000E+00	 0.00000000E+00
					-3.09172000E+00	-9.51532000E+00	 0.00000000E+00
					-3.08862000E+00	-9.50581000E+00	 0.00000000E+00
					-1.04581000E+00	-9.95019000E+00	 0.00000000E+00
					-1.04476000E+00	-9.94025000E+00	 0.00000000E+00
					 1.04581000E+00	-9.95019000E+00	 0.00000000E+00
					 1.04476000E+00	-9.94025000E+00	 0.00000000E+00
					 3.09172000E+00	-9.51532000E+00	 0.00000000E+00
					 3.08862000E+00	-9.50581000E+00	 0.00000000E+00
					 5.00250000E+00	-8.66458000E+00	 0.00000000E+00
					 4.99750000E+00	-8.65592000E+00	 0.00000000E+00
					 6.69465000E+00	-7.43516000E+00	 0.00000000E+00
					 6.68796000E+00	-7.42773000E+00	 0.00000000E+00
					 8.09422000E+00	-5.88079000E+00	 0.00000000E+00
					 8.08612000E+00	-5.87491000E+00	 0.00000000E+00
					 9.14002000E+00	-4.06940000E+00	 0.00000000E+00
					 9.13089000E+00	-4.06533000E+00	 0.00000000E+00
					 9.78637000E+00	-2.08016000E+00	 0.00000000E+00
					 9.77659000E+00	-2.07808000E+00	 0.00000000E+00
					 1.00050000E+01	 0.00000000E+00	 1.96078000E+00
					 9.99500000E+00	 0.00000000E+00	 1.96078000E+00
					 1.00050000E+01	 0.00000000E+00	 3.92157000E+00
					 9.99500000E+00	 0.00000000E+00	 3.92157000E+00
					 1.00050000E+01	 0.00000000E+00	 5.88235000E+00
					 9.99500000E+00	 0.00000000E+00	 5.88235000E+00
					 1.00050000E+01	-1.74428000E-20	 7.84314000E+00
					 9.99500000E+00	 1.74428000E-20	 7.84314000E+00
					 1.00050000E+01	-1.74428000E-20	 9.80392000E+00
					 9.99500000E+00	 1.74428000E-20	 9.80392000E+00
					 1.00050000E+01	 0.00000000E+00	 1.17647000E+01
					 9.99500000E+00	 0.00000000E+00	 1.17647000E+01
					 1.00050000E+01	 0.00000000E+00	 1.37255000E+01
					 9.99500000E+00	 0.00000000E+00	 1.37255000E+01
					 1.00050000E+01	 0.00000000E+00	 1.56863000E+01
					 9.99500000E+00	 0.00000000E+00	 1.56863000E+01
					 1.00050000E+01	 0.00000000E+00	 1.76471000E+01
					 9.99500000E+00	 0.00000000E+00	 1.76471000E+01
					 1.00050000E+01	 0.00000000E+00	 1.96078000E+01
					 9.99500000E+00	 0.00000000E+00	 1.96078000E+01
					 1.00050000E+01	 0.00000000E+00	 2.15686000E+01
					 9.99500000E+00	 0.00000000E+00	 2.15686000E+01
					 1.00050000E+01	 0.00000000E+00	 2.35294000E+01
					 9.99500000E+00	 0.00000000E+00	 2.35294000E+01
					 1.00050000E+01	 0.00000000E+00	 2.54902000E+01
					 9.99500000E+00	 0.00000000E+00	 2.54902000E+01
					 1.00050000E+01	 0.00000000E+00	 2.74510000E+01
					 9.99500000E+00	 0.00000000E+00	 2.74510000E+01
					 1.00050000E+01	 0.00000000E+00	 2.94118000E+01
					 9.99500000E+00	 0.00000000E+00	 2.94118000E+01
					 1.00050000E+01	 0.00000000E+00	 3.13725000E+01
					 9.99500000E+00	 0.00000000E+00	 3.13725000E+01
					 1.00050000E+01	 0.00000000E+00	 3.33333000E+01
					 9.99500000E+00	 0.00000000E+00	 3.33333000E+01
					 1.00050000E+01	 0.00000000E+00	 3.52941000E+01
					 9.99500000E+00	 0.00000000E+00	 3.52941000E+01
					 1.00050000E+01	 0.00000000E+00	 3.72549000E+01
					 9.99500000E+00	 0.00000000E+00	 3.72549000E+01
					 1.00050000E+01	 0.00000000E+00	 3.92157000E+01
					 9.99500000E+00	 0.00000000E+00	 3.92157000E+01
					 1.00050000E+01	 0.00000000E+00	 4.11765000E+01
					 9.99500000E+00	 0.00000000E+00	 4.11765000E+01
					 1.00050000E+01	 0.00000000E+00	 4.31373000E+01
					 9.99500000E+00	 0.00000000E+00	 4.31373000E+01
					 1.00050000E+01	 0.00000000E+00	 4.50980000E+01
					 9.99500000E+00	 0.00000000E+00	 4.50980000E+01
					 1.00050000E+01	 0.00000000E+00	 4.70588000E+01
					 9.99500000E+00	 0.00000000E+00	 4.70588000E+01
					 1.00050000E+01	 0.00000000E+00	 4.90196000E+01
					 9.99500000E+00	 0.00000000E+00	 4.90196000E+01
					 1.00050000E+01	 0.00000000E+00	 5.09804000E+01
					 9.99500000E+00	 0.00000000E+00	 5.09804000E+01
					 1.00050000E+01	 0.00000000E+00	 5.29412000E+01
					 9.99500000E+00	 0.00000000E+00	 5.29412000E+01
					 1.00050000E+01	 0.00000000E+00	 5.49020000E+01
					 9.99500000E+00	 0.00000000E+00	 5.49020000E+01
					 1.00050000E+01	 0.00000000E+00	 5.68627000E+01
					 9.99500000E+00	 0.00000000E+00	 5.68627000E+01
					 1.00050000E+01	 0.00000000E+00	 5.88235000E+01
					 9.99500000E+00	 0.00000000E+00	 5.88235000E+01
					 1.00050000E+01	 0.00000000E+00	 6.07843000E+01
					 9.99500000E+00	 0.00000000E+00	 6.07843000E+01
					 1.00050000E+01	 0.00000000E+00	 6.27451000E+01
					 9.99500000E+00	 0.00000000E+00	 6.27451000E+01
					 1.00050000E+01	 0.00000000E+00	 6.47059000E+01
					 9.99500000E+00	 0.00000000E+00	 6.47059000E+01
					 1.00050000E+01	 0.00000000E+00	 6.66667000E+01
					 9.99500000E+00	 0.00000000E+00	 6.66667000E+01
					 1.00050000E+01	 0.00000000E+00	 6.86274000E+01
					 9.99500000E+00	 0.00000000E+00	 6.86274000E+01
					 1.00050000E+01	 0.00000000E+00	 7.05882000E+01
					 9.99500000E+00	 0.00000000E+00	 7.05882000E+01
					 1.00050000E+01	 0.00000000E+00	 7.25490000E+01
					 9.99500000E+00	 0.00000000E+00	 7.25490000E+01
					 1.00050000E+01	 0.00000000E+00	 7.45098000E+01
					 9.99500000E+00	 0.00000000E+00	 7.45098000E+01
					 1.00050000E+01	 0.00000000E+00	 7.64706000E+01
					 9.99500000E+00	 0.00000000E+00	 7.64706000E+01
					 1.00050000E+01	 0.00000000E+00	 7.84314000E+01
					 9.99500000E+00	 0.00000000E+00	 7.84314000E+01
					 1.00050000E+01	 0.00000000E+00	 8.03922000E+01
					 9.99500000E+00	 0.00000000E+00	 8.03922000E+01
					 1.00050000E+01	 0.00000000E+00	 8.23529000E+01
					 9.99500000E+00	 0.00000000E+00	 8.23529000E+01
					 1.00050000E+01	 0.00000000E+00	 8.43137000E+01
					 9.99500000E+00	 0.00000000E+00	 8.43137000E+01
					 1.00050000E+01	 0.00000000E+00	 8.62745000E+01
					 9.99500000E+00	 0.00000000E+00	 8.62745000E+01
					 1.00050000E+01	 0.00000000E+00	 8.82353000E+01
					 9.99500000E+00	 0.00000000E+00	 8.82353000E+01
					 1.00050000E+01	 0.00000000E+00	 9.01961000E+01
					 9.99500000E+00	 0.00000000E+00	 9.01961000E+01
					 1.00050000E+01	 0.00000000E+00	 9.21569000E+01
					 9.99500000E+00	 0.00000000E+00	 9.21569000E+01
					 1.00050000E+01	 0.00000000E+00	 9.41176000E+01
					 9.99500000E+00	 0.00000000E+00	 9.41176000E+01
					 1.00050000E+01	 0.00000000E+00	 9.60784000E+01
					 9.99500000E+00	 0.00000000E+00	 9.60784000E+01
					 1.00050000E+01	 0.00000000E+00	 9.80392000E+01
					 9.99500000E+00	 0.00000000E+00	 9.80392000E+01
					 9.78637000E+00	 2.08016000E+00	 1.00000000E+02
					 9.77659000E+00	 2.07808000E+00	 1.00000000E+02
					 9.14002000E+00	 4.06940000E+00	 1.00000000E+02
					 9.13089000E+00	 4.06533000E+00	 1.00000000E+02
					 8.09422000E+00	 5.88079000E+00	 1.00000000E+02
					 8.08612000E+00	 5.87491000E+00	 1.00000000E+02
					 6.69465000E+00	 7.43516000E+00	 1.00000000E+02
					 6.68796000E+00	 7.42773000E+00	 1.00000000E+02
					 5.00250000E+00	 8.66458000E+00	 1.00000000E+02
					 4.99750000E+00	 8.65592000E+00	 1.00000000E+02
					 3.09172000E+00	 9.51532000E+00	 1.00000000E+02
					 3.08862000E+00	 9.50581000E+00	 1.00000000E+02
					 1.04581000E+00	 9.95019000E+00	 1.00000000E+02
					 1.04476000E+00	 9.94025000E+00	 1.00000000E+02
					-1.04581000E+00	 9.95019000E+00	 1.00000000E+02
					-1.04476000E+00	 9.94025000E+00	 1.00000000E+02
					-3.09172000E+00	 9.51532000E+00	 1.00000000E+02
					-3.08862000E+00	 9.50581000E+00	 1.00000000E+02
					-5.00250000E+00	 8.66458000E+00	 1.00000000E+02
					-4.99750000E+00	 8.65592000E+00	 1.00000000E+02
					-6.69465000E+00	 7.43516000E+00	 1.00000000E+02
[...]
			<PointData>
				<DataArray type="Float32" Name="U" NumberOfComponents="3" ComponentName0="D1" ComponentName1="D2" ComponentName2="D3" format="ascii">
					-3.13216000E-07	-9.58261000E-09	 7.37978000E-07
					 3.13216000E-07	 9.58261000E-09	-7.37978000E-07
					-2.85741000E-02	 3.27184000E-03	-1.55098000E-03
					-2.85679000E-02	 3.32082000E-03	-1.48693000E-03
					-1.02512000E-07	-4.53096000E-08	 2.58452000E-07
					 1.02512000E-07	 4.53096000E-08	-2.58452000E-07
					 1.60656000E-07	 4.83166000E-08	-3.92099000E-07
					-1.60656000E-07	-4.83166000E-08	 3.92099000E-07
					 2.72079000E-07	 1.91036000E-07	-7.83180000E-07
					-2.72079000E-07	-1.91036000E-07	 7.83180000E-07
					 1.75887000E-07	 2.16288000E-07	-6.55998000E-07
					-1.75887000E-07	-2.16288000E-07	 6.55998000E-07
					-7.96047000E-10	 4.68795000E-08	-9.47141000E-08
					 7.96047000E-10	-4.68795000E-08	 9.47141000E-08
					-8.67941000E-08	-2.07984000E-07	 5.29249000E-07
					 8.67941000E-08	 2.07984000E-07	-5.29249000E-07
					-3.59505000E-08	-3.38908000E-07	 8.02990000E-07
					 3.59505000E-08	 3.38908000E-07	-8.02990000E-07
					 4.19334000E-08	-2.28333000E-07	 5.45365000E-07
					-4.19334000E-08	 2.28333000E-07	-5.45365000E-07
					 1.34192000E-08	 3.70056000E-08	-7.31450000E-08
					-1.34192000E-08	-3.70056000E-08	 7.31450000E-08
					-1.23910000E-07	 2.43711000E-07	-6.43249000E-07
					 1.23910000E-07	-2.43711000E-07	 6.43249000E-07
					-2.27218000E-07	 2.45281000E-07	-7.87686000E-07
					 2.27218000E-07	-2.45281000E-07	 7.87686000E-07
					-1.53356000E-07	 8.56135000E-08	-4.10876000E-07
					 1.53356000E-07	-8.56135000E-08	 4.10876000E-07
					 8.27727000E-08	-6.22580000E-08	 2.37830000E-07
					-8.27727000E-08	 6.22580000E-08	-2.37830000E-07
					 3.00593000E-07	-7.43025000E-08	 7.29158000E-07
					-3.00593000E-07	 7.43025000E-08	-7.29158000E-07
					 3.13216000E-07	 9.58262000E-09	 7.37977000E-07
					-3.13216000E-07	-9.58262000E-09	-7.37977000E-07
					 1.02512000E-07	 4.53096000E-08	 2.58449000E-07
					-1.02512000E-07	-4.53096000E-08	-2.58449000E-07
					-1.60656000E-07	-4.83166000E-08	-3.92103000E-07
					 1.60656000E-07	 4.83166000E-08	 3.92103000E-07
					-2.72079000E-07	-1.91036000E-07	-7.83185000E-07
					 2.72079000E-07	 1.91036000E-07	 7.83185000E-07
					-1.75887000E-07	-2.16288000E-07	-6.56004000E-07
					 1.75887000E-07	 2.16288000E-07	 6.56004000E-07
					 7.96049000E-10	-4.68795000E-08	-9.47210000E-08
					-7.96049000E-10	 4.68795000E-08	 9.47210000E-08
					 8.67941000E-08	 2.07984000E-07	 5.29241000E-07
					-8.67941000E-08	-2.07984000E-07	-5.29241000E-07
					 3.59505000E-08	 3.38908000E-07	 8.02983000E-07
					-3.59505000E-08	-3.38908000E-07	-8.02983000E-07
					-4.19334000E-08	 2.28333000E-07	 5.45360000E-07
					 4.19334000E-08	-2.28333000E-07	-5.45360000E-07
					-1.34192000E-08	-3.70055000E-08	-7.31497000E-08
					 1.34192000E-08	 3.70055000E-08	 7.31497000E-08
					 1.23910000E-07	-2.43711000E-07	-6.43253000E-07
					-1.23910000E-07	 2.43711000E-07	 6.43253000E-07
					 2.27218000E-07	-2.45281000E-07	-7.87689000E-07
					-2.27218000E-07	 2.45281000E-07	 7.87689000E-07
					 1.53356000E-07	-8.56136000E-08	-4.10879000E-07
					-1.53356000E-07	 8.56136000E-08	 4.10879000E-07
					-8.27726000E-08	 6.22579000E-08	 2.37829000E-07
					 8.27726000E-08	-6.22579000E-08	-2.37829000E-07
					-3.00593000E-07	 7.43025000E-08	 7.29159000E-07
					 3.00593000E-07	-7.43025000E-08	-7.29159000E-07
					-4.44381000E-04	-5.76988000E-06	 3.12285000E-04
					-4.43772000E-04	-4.94340000E-06	 3.09249000E-04
					-1.57965000E-03	 1.18418000E-04	 6.61620000E-04
					-1.57877000E-03	 1.21193000E-04	 6.53016000E-04
					-4.03694000E-03	 3.71568000E-04	 1.01430000E-03
					-4.03562000E-03	 3.78553000E-04	 9.97846000E-04
					-7.91287000E-03	 7.60010000E-04	 1.34673000E-03
					-7.91092000E-03	 7.73643000E-04	 1.32368000E-03
					-1.29758000E-02	 1.27278000E-03	 1.63304000E-03
					-1.29731000E-02	 1.29510000E-03	 1.60448000E-03
					-1.90166000E-02	 1.88734000E-03	 1.84734000E-03
					-1.90130000E-02	 1.92000000E-03	 1.81433000E-03
					-2.57670000E-02	 2.57421000E-03	 1.96826000E-03
					-2.57623000E-02	 2.61844000E-03	 1.93248000E-03
					-3.28632000E-02	 3.29702000E-03	 1.97967000E-03
					-3.28575000E-02	 3.35341000E-03	 1.94313000E-03
					-3.98930000E-02	 4.01404000E-03	 1.87119000E-03
					-3.98863000E-02	 4.08247000E-03	 1.83609000E-03
					-4.64213000E-02	 4.68084000E-03	 1.63924000E-03
					-4.64136000E-02	 4.76046000E-03	 1.60782000E-03
					-5.20113000E-02	 5.25287000E-03	 1.28735000E-03
					-5.20029000E-02	 5.34206000E-03	 1.26182000E-03
					-5.62481000E-02	 5.68789000E-03	 8.26138000E-04
					-5.62390000E-02	 5.78434000E-03	 8.08512000E-04
					-5.87657000E-02	 5.94856000E-03	 2.72868000E-04
					-5.87563000E-02	 6.04931000E-03	 2.64860000E-04
					-5.92677000E-02	 6.00466000E-03	-3.49358000E-04
					-5.92584000E-02	 6.10627000E-03	-3.46442000E-04
					-5.75477000E-02	 5.83506000E-03	-1.01272000E-03
					-5.75388000E-02	 5.93371000E-03	-9.98082000E-04
					-5.35023000E-02	 5.42916000E-03	-1.68612000E-03
					-5.34940000E-02	 5.52087000E-03	-1.65950000E-03
					-4.71411000E-02	 4.78782000E-03	-2.33675000E-03
					-4.71338000E-02	 4.86862000E-03	-2.29851000E-03
					-3.85893000E-02	 3.92371000E-03	-2.93186000E-03
					-3.85835000E-02	 3.98984000E-03	-2.88292000E-03
					-2.80855000E-02	 2.86096000E-03	-3.44046000E-03
					-2.80813000E-02	 2.90908000E-03	-3.38232000E-03
					-1.59716000E-02	 1.63428000E-03	-3.83499000E-03
					-1.59694000E-02	 1.66164000E-03	-3.76965000E-03
					-2.67914000E-03	 2.87493000E-04	-4.09287000E-03
					-2.67899000E-03	 2.92060000E-04	-4.02272000E-03
					 1.12909000E-02	-1.12853000E-03	-4.19766000E-03
					 1.12888000E-02	-1.14791000E-03	-4.12541000E-03
					 2.53912000E-02	-2.55816000E-03	-4.14009000E-03
					 2.53870000E-02	-2.60172000E-03	-4.06861000E-03
					 3.90543000E-02	-3.94376000E-03	-3.91857000E-03
					 3.90479000E-02	-4.01074000E-03	-3.85077000E-03
					 5.17201000E-02	-5.22839000E-03	-3.53937000E-03
					 5.17117000E-02	-5.31707000E-03	-3.47807000E-03
					 6.28629000E-02	-6.35864000E-03	-3.01642000E-03
					 6.28529000E-02	-6.46643000E-03	-2.96415000E-03
					 7.20181000E-02	-7.28725000E-03	-2.37059000E-03
					 7.20066000E-02	-7.41073000E-03	-2.32955000E-03
					 7.88036000E-02	-7.97542000E-03	-1.62877000E-03
					 7.87910000E-02	-8.11053000E-03	-1.60065000E-03
					 8.29400000E-02	-8.39473000E-03	-8.22468000E-04
					 8.29268000E-02	-8.53694000E-03	-8.08423000E-04
					 8.42634000E-02	-8.52855000E-03	 1.36820000E-05
					 8.42500000E-02	-8.67303000E-03	 1.31282000E-05
					 8.27337000E-02	-8.37280000E-03	 8.43694000E-04
					 8.27206000E-02	-8.51466000E-03	 8.28659000E-04
					 7.84361000E-02	-7.93615000E-03	 1.63201000E-03
					 7.84235000E-02	-8.07063000E-03	 1.60324000E-03
					 7.15761000E-02	-7.23951000E-03	 2.34527000E-03
					 7.15647000E-02	-7.36224000E-03	 2.30412000E-03
					 6.24695000E-02	-6.31500000E-03	 2.95397000E-03
					 6.24595000E-02	-6.42212000E-03	 2.90230000E-03
					 5.15256000E-02	-5.20423000E-03	 3.43389000E-03
					 5.15172000E-02	-5.29259000E-03	 3.37401000E-03
					 3.92264000E-02	-3.95621000E-03	 3.76730000E-03
					 3.92199000E-02	-4.02349000E-03	 3.70182000E-03
					 2.61027000E-02	-2.62490000E-03	 3.94373000E-03
					 2.60983000E-02	-2.66969000E-03	 3.87544000E-03
					 1.27072000E-02	-1.26649000E-03	 3.96044000E-03
					 1.27049000E-02	-1.28831000E-03	 3.89219000E-03
					-4.12585000E-04	 6.33730000E-05	 3.82244000E-03
					-4.12881000E-04	 6.40455000E-05	 3.75696000E-03
					-1.27406000E-02	 1.31233000E-03	 3.54211000E-03
					-1.27390000E-02	 1.33414000E-03	 3.48192000E-03
					-2.38190000E-02	 2.43380000E-03	 3.13842000E-03
					-2.38156000E-02	 2.47460000E-03	 3.08568000E-03
					-3.32686000E-02	 3.38903000E-03	 2.63595000E-03
					-3.32637000E-02	 3.44604000E-03	 2.59236000E-03
					-4.07963000E-02	 4.14890000E-03	 2.06334000E-03
					-4.07902000E-02	 4.21882000E-03	 2.03018000E-03
					-4.62180000E-02	 4.69571000E-03	 1.45144000E-03
					-4.62109000E-02	 4.77492000E-03	 1.42931000E-03
					-4.95071000E-02	 5.02284000E-03	 8.32446000E-04
					-4.94995000E-02	 5.10771000E-03	 8.21022000E-04
					-5.06962000E-02	 5.13219000E-03	 2.39193000E-04
					-5.06883000E-02	 5.21911000E-03	 2.38486000E-04
					-4.97238000E-02	 5.04062000E-03	-3.02025000E-04
					-4.97159000E-02	 5.12587000E-03	-2.91437000E-04
					-4.70807000E-02	 4.78656000E-03	-7.73799000E-04
					-4.70730000E-02	 4.86727000E-03	-7.57564000E-04
					-4.40183000E-02	 4.38280000E-03	-1.13787000E-03
					-4.40113000E-02	 4.45837000E-03	-1.12283000E-03
					-3.87612000E-02	 3.81202000E-03	-1.35940000E-03
					-3.87549000E-02	 3.87846000E-03	-1.32048000E-03
					-1.14215000E-02	 5.60286000E-03	-5.43174000E-04
					-1.14438000E-02	 5.71832000E-03	-5.20743000E-04
					 1.09246000E-02	 1.27895000E-02	 8.24072000E-04
					 1.08776000E-02	 1.28871000E-02	 7.90042000E-04
					 2.34549000E-02	 1.93084000E-02	 1.64600000E-03
					 2.34335000E-02	 1.93268000E-02	 1.57803000E-03
					 2.05523000E-02	 1.56739000E-02	 1.37870000E-03
					 2.06019000E-02	 1.56219000E-02	 1.32177000E-03
					 8.96853000E-03	-9.43185000E-04	 1.99066000E-04
					 9.07493000E-03	-1.00553000E-03	 1.90845000E-04
					-3.97954000E-04	-2.14174000E-02	-1.11230000E-03
					-3.07759000E-04	-2.14421000E-02	-1.06637000E-03
					-3.13852000E-03	-3.09327000E-02	-1.68761000E-03
					-3.13616000E-03	-3.09262000E-02	-1.61792000E-03
					-3.84936000E-03	-2.16370000E-02	-1.14617000E-03
					-3.94050000E-03	-2.16420000E-02	-1.09884000E-03
					-8.73287000E-03	 1.40691000E-04	 1.53741000E-04
					-8.85030000E-03	 1.01894000E-04	 1.47392000E-04
					-1.67546000E-02	 1.90864000E-02	 1.35191000E-03
					-1.68163000E-02	 1.90446000E-02	 1.29609000E-03
					-1.92076000E-02	 2.37461000E-02	 1.65547000E-03
					-1.91852000E-02	 2.37574000E-02	 1.58711000E-03
					-8.68092000E-03	 1.51181000E-02	 8.63542000E-04
					-8.61544000E-03	 1.52024000E-02	 8.27882000E-04
					 1.16355000E-02	 3.49379000E-03	-4.99829000E-04
					 1.16819000E-02	 3.60296000E-03	-4.79188000E-04
					 2.83384000E-02	-2.46935000E-03	-1.53244000E-03
					 2.83433000E-02	-2.41718000E-03	-1.46916000E-03
					 2.85741000E-02	-3.27184000E-03	-1.55098000E-03
					 2.85679000E-02	-3.32082000E-03	-1.48693000E-03
					 1.14215000E-02	-5.60285000E-03	-5.43173000E-04
					 1.14438000E-02	-5.71831000E-03	-5.20743000E-04
					-1.09246000E-02	-1.27895000E-02	 8.24073000E-04
					-1.08775000E-02	-1.28871000E-02	 7.90042000E-04
					-2.34549000E-02	-1.93084000E-02	 1.64600000E-03
					-2.34335000E-02	-1.93267000E-02	 1.57803000E-03
					-2.05523000E-02	-1.56739000E-02	 1.37870000E-03
					-2.06019000E-02	-1.56219000E-02	 1.32177000E-03
					-8.96852000E-03	 9.43180000E-04	 1.99066000E-04
					-9.07493000E-03	 1.00552000E-03	 1.90846000E-04
					 3.97957000E-04	 2.14174000E-02	-1.11230000E-03
					 3.07762000E-04	 2.14421000E-02	-1.06637000E-03
					 3.13853000E-03	 3.09327000E-02	-1.68761000E-03
					 3.13616000E-03	 3.09262000E-02	-1.61792000E-03
					 3.84937000E-03	 2.16370000E-02	-1.14617000E-03
					 3.94050000E-03	 2.16420000E-02	-1.09884000E-03
					 8.73287000E-03	-1.40688000E-04	 1.53742000E-04
					 8.85030000E-03	-1.01892000E-04	 1.47393000E-04
					 1.67546000E-02	-1.90864000E-02	 1.35191000E-03
					 1.68163000E-02	-1.90446000E-02	 1.29609000E-03
					 1.92076000E-02	-2.37461000E-02	 1.65547000E-03
					 1.91852000E-02	-2.37574000E-02	 1.58711000E-03
					 8.68092000E-03	-1.51181000E-02	 8.63541000E-04
					 8.61543000E-03	-1.52024000E-02	 8.27881000E-04
					-1.16355000E-02	-3.49379000E-03	-4.99830000E-04
					-1.16819000E-02	-3.60296000E-03	-4.79189000E-04
					-2.83384000E-02	 2.46935000E-03	-1.53244000E-03
					-2.83433000E-02	 2.41719000E-03	-1.46916000E-03
					-1.49348000E-04	-4.59067000E-05	 1.09366000E-04
					-1.49552000E-04	-4.39214000E-05	 1.08303000E-04
					-6.00235000E-04	 1.63067000E-04	 2.31708000E-04
					-6.01317000E-04	 1.69648000E-04	 2.28695000E-04
					-1.56837000E-03	 5.78629000E-04	 3.55222000E-04
					-1.57140000E-03	 5.95127000E-04	 3.49459000E-04
					-3.09000000E-03	 1.20861000E-03	 4.71642000E-04
					-3.09614000E-03	 1.24076000E-03	 4.63570000E-04
					-5.08031000E-03	 2.04413000E-03	 5.71912000E-04
					-5.09051000E-03	 2.09673000E-03	 5.61911000E-04
					-7.45641000E-03	 3.04747000E-03	 6.46961000E-04
					-7.47147000E-03	 3.12444000E-03	 6.35401000E-04
					-1.01117000E-02	 4.16896000E-03	 6.89311000E-04
					-1.01322000E-02	 4.27317000E-03	 6.76780000E-04
					-1.29034000E-02	 5.34967000E-03	 6.93305000E-04
					-1.29296000E-02	 5.48252000E-03	 6.80510000E-04
					-1.56694000E-02	 6.52162000E-03	 6.55316000E-04
					-1.57012000E-02	 6.68282000E-03	 6.43024000E-04
					-1.82386000E-02	 7.61217000E-03	 5.74083000E-04
					-1.82757000E-02	 7.79971000E-03	 5.63079000E-04
					-2.04390000E-02	 8.54845000E-03	 4.50846000E-04
					-2.04806000E-02	 8.75853000E-03	 4.41904000E-04
					-2.21075000E-02	 9.26155000E-03	 2.89324000E-04
					-2.21525000E-02	 9.48870000E-03	 2.83151000E-04
					-2.31000000E-02	 9.69037000E-03	 9.55619000E-05
					-2.31471000E-02	 9.92766000E-03	 9.27572000E-05
					-2.33000000E-02	 9.78557000E-03	-1.22350000E-04
					-2.33475000E-02	 1.00249000E-02	-1.21328000E-04
					-2.26262000E-02	 9.51252000E-03	-3.54668000E-04
					-2.26723000E-02	 9.74484000E-03	-3.49541000E-04
					-2.10377000E-02	 8.85389000E-03	-5.90501000E-04
					-2.10807000E-02	 9.06986000E-03	-5.81180000E-04
					-1.85385000E-02	 7.81098000E-03	-8.18361000E-04
					-1.85764000E-02	 8.00125000E-03	-8.04968000E-04
					-1.51777000E-02	 6.40442000E-03	-1.02678000E-03
					-1.52087000E-02	 6.56015000E-03	-1.00964000E-03
					-1.10490000E-02	 4.67352000E-03	-1.20489000E-03
					-1.10716000E-02	 4.78684000E-03	-1.18453000E-03
					-6.28701000E-03	 2.67492000E-03	-1.34307000E-03
					-6.29990000E-03	 2.73933000E-03	-1.32018000E-03
					-1.06127000E-03	 4.80056000E-04	-1.43337000E-03
					-1.06350000E-03	 4.90793000E-04	-1.40881000E-03
					 4.43112000E-03	-1.82805000E-03	-1.47008000E-03
					 4.44010000E-03	-1.87371000E-03	-1.44477000E-03
					 9.97494000E-03	-4.15865000E-03	-1.44991000E-03
					 9.99523000E-03	-4.26123000E-03	-1.42488000E-03
					 1.53470000E-02	-6.41766000E-03	-1.37233000E-03
					 1.53782000E-02	-6.57540000E-03	-1.34859000E-03
					 2.03270000E-02	-8.51217000E-03	-1.23953000E-03
					 2.03684000E-02	-8.72105000E-03	-1.21806000E-03
					 2.47083000E-02	-1.03550000E-02	-1.05639000E-03
					 2.47586000E-02	-1.06089000E-02	-1.03808000E-03
					 2.83080000E-02	-1.18691000E-02	-8.30213000E-04
					 2.83657000E-02	-1.21599000E-02	-8.15838000E-04
					 3.09759000E-02	-1.29911000E-02	-5.70415000E-04
					 3.10391000E-02	-1.33093000E-02	-5.60568000E-04
					 3.26022000E-02	-1.36746000E-02	-2.88039000E-04
					 3.26687000E-02	-1.40095000E-02	-2.83120000E-04
					 3.31224000E-02	-1.38925000E-02	 4.79119000E-06
					 3.31899000E-02	-1.42328000E-02	 4.59725000E-06
					 3.25206000E-02	-1.36382000E-02	 2.95472000E-04
					 3.25869000E-02	-1.39722000E-02	 2.90207000E-04
					 3.08304000E-02	-1.29257000E-02	 5.71551000E-04
					 3.08933000E-02	-1.32424000E-02	 5.61476000E-04
					 2.81328000E-02	-1.17892000E-02	 8.21343000E-04
					 2.81901000E-02	-1.20783000E-02	 8.06931000E-04
					 2.45517000E-02	-1.02812000E-02	 1.03452000E-03
					 2.46018000E-02	-1.05335000E-02	 1.01642000E-03
					 2.02483000E-02	-8.46959000E-03	 1.20259000E-03
					 2.02896000E-02	-8.67771000E-03	 1.18162000E-03
					 1.54122000E-02	-6.43436000E-03	 1.31936000E-03
					 1.54435000E-02	-6.59282000E-03	 1.29642000E-03
					 1.02520000E-02	-4.26357000E-03	 1.38114000E-03
					 1.02728000E-02	-4.36905000E-03	 1.35723000E-03
					 4.98517000E-03	-2.04892000E-03	 1.38700000E-03
					 4.99526000E-03	-2.10033000E-03	 1.36309000E-03
					-1.72959000E-04	 1.18776000E-04	 1.33867000E-03
					-1.73396000E-04	 1.20334000E-04	 1.31574000E-03
					-5.01949000E-03	 2.15412000E-03	 1.24049000E-03
					-5.02981000E-03	 2.20545000E-03	 1.21941000E-03
					-9.37428000E-03	 3.98106000E-03	 1.09912000E-03
					-9.39348000E-03	 4.07713000E-03	 1.08064000E-03
					-1.30881000E-02	 5.53623000E-03	 9.23142000E-04
					-1.31149000E-02	 5.67046000E-03	 9.07877000E-04
					-1.60461000E-02	 6.77256000E-03	 7.22607000E-04
					-1.60789000E-02	 6.93719000E-03	 7.10995000E-04
					-1.81763000E-02	 7.66188000E-03	 5.08313000E-04
					-1.82134000E-02	 7.84842000E-03	 5.00564000E-04
					-1.94663000E-02	 8.19061000E-03	 2.91533000E-04
					-1.95061000E-02	 8.39046000E-03	 2.87532000E-04
					-1.99283000E-02	 8.36082000E-03	 8.37684000E-05
					-1.99689000E-02	 8.56550000E-03	 8.35207000E-05
					-1.95494000E-02	 8.21659000E-03	-1.05773000E-04
					-1.95893000E-02	 8.41734000E-03	-1.02065000E-04
					-1.85172000E-02	 7.81242000E-03	-2.70995000E-04
					-1.85549000E-02	 8.00251000E-03	-2.65309000E-04
					-1.72666000E-02	 7.08721000E-03	-3.98499000E-04
					-1.73019000E-02	 7.26519000E-03	-3.93232000E-04
					-1.51808000E-02	 6.12962000E-03	-4.76080000E-04
					-1.52118000E-02	 6.28609000E-03	-4.62450000E-04
					 2.20890000E-04	 8.43699000E-05	-1.65924000E-04
					 2.19850000E-04	 8.59090000E-05	-1.64311000E-04
					 6.60160000E-04	 5.80770000E-04	-3.51534000E-04
					 6.57233000E-04	 5.86189000E-04	-3.46963000E-04
					 1.62505000E-03	 1.62358000E-03	-5.38922000E-04
					 1.61812000E-03	 1.63741000E-03	-5.30179000E-04
					 3.15675000E-03	 3.24648000E-03	-7.15549000E-04
					 3.14353000E-03	 3.27362000E-03	-7.03303000E-04
					 5.15270000E-03	 5.37724000E-03	-8.67674000E-04
					 5.13129000E-03	 5.42176000E-03	-8.52500000E-04
					 7.53170000E-03	 7.92510000E-03	-9.81534000E-04
					 7.50053000E-03	 7.99035000E-03	-9.63994000E-04
					 1.01900000E-02	 1.07725000E-02	-1.04578000E-03
					 1.01479000E-02	 1.08609000E-02	-1.02677000E-03
					 1.29839000E-02	 1.37673000E-02	-1.05184000E-03
					 1.29303000E-02	 1.38800000E-02	-1.03243000E-03
					 1.57507000E-02	 1.67360000E-02	-9.94209000E-04
					 1.56858000E-02	 1.68729000E-02	-9.75560000E-04
					 1.83192000E-02	 1.94948000E-02	-8.70967000E-04
					 1.82439000E-02	 1.96541000E-02	-8.54273000E-04
					 2.05177000E-02	 2.18593000E-02	-6.83999000E-04
					 2.04333000E-02	 2.20378000E-02	-6.70433000E-04
					 2.21826000E-02	 2.36543000E-02	-4.38947000E-04
					 2.20914000E-02	 2.38474000E-02	-4.29582000E-04
					 2.31700000E-02	 2.47254000E-02	-1.44982000E-04
					 2.30748000E-02	 2.49270000E-02	-1.40727000E-04
					 2.33632000E-02	 2.49473000E-02	 1.85622000E-04
					 2.32672000E-02	 2.51507000E-02	 1.84072000E-04
					 2.26810000E-02	 2.42327000E-02	 5.38082000E-04
					 2.25879000E-02	 2.44302000E-02	 5.30304000E-04
					 2.10827000E-02	 2.25379000E-02	 8.95875000E-04
					 2.09962000E-02	 2.27215000E-02	 8.81733000E-04
					 1.85723000E-02	 1.98667000E-02	 1.24157000E-03
					 1.84961000E-02	 2.00284000E-02	 1.22125000E-03
					 1.51992000E-02	 1.62717000E-02	 1.55777000E-03
					 1.51368000E-02	 1.64041000E-02	 1.53176000E-03
					 1.10573000E-02	 1.18532000E-02	 1.82799000E-03
					 1.10120000E-02	 1.19496000E-02	 1.79710000E-03
					 6.28148000E-03	 6.75548000E-03	 2.03762000E-03
					 6.25576000E-03	 6.81030000E-03	 2.00290000E-03
					 1.04166000E-03	 1.16018000E-03	 2.17464000E-03
					 1.03748000E-03	 1.16938000E-03	 2.13736000E-03
					-4.46470000E-03	-4.72149000E-03	 2.23031000E-03
					-4.44627000E-03	-4.76023000E-03	 2.19193000E-03
					-1.00221000E-02	-1.06588000E-02	 2.19973000E-03
					-9.98080000E-03	-1.07460000E-02	 2.16175000E-03
					-1.54068000E-02	-1.64127000E-02	 2.08203000E-03
					-1.53434000E-02	-1.65467000E-02	 2.04601000E-03
					-2.03984000E-02	-2.17469000E-02	 1.88055000E-03
					-2.03145000E-02	-2.19243000E-02	 1.84798000E-03
					-2.47897000E-02	-2.64399000E-02	 1.60269000E-03
					-2.46878000E-02	-2.66556000E-02	 1.57492000E-03
					-2.83977000E-02	-3.02956000E-02	 1.25955000E-03
					-2.82809000E-02	-3.05428000E-02	 1.23774000E-03