<?xml version="1.0"?>
<VTKFile type="UnstructuredGrid" version="0.1" byte_order="LittleEndian">
	<UnstructuredGrid>
		<Piece NumberOfPoints="3120" NumberOfCells="1530">
			<Points>
				<DataArray type="Float64" NumberOfComponents="3" format="ascii">
					 1.00050000E+01	 0.00000000E+00	 0.00000000E+00
					 9.99500000E+00	 0.00000000E+00	 0.00000000E+00
					 1.00050000E+01	 0.00000000E+00	 1.00000000E+02
					 9.99500000E+00	 0.00000000E+00	 1.00000000E+02
					 9.78637000E+00	 2.08016000E+00	 0.00000000E+00
					 9.77659000E+00	 2.07808000E+00	 0.00000000E+00
					 9.14002000E+00	 4.06940000E+00	 0.00000000E+00
					 9.13089000E+00	 4.06533000E+00	 0.00000000E+00
					 8.09422000E+00	 5.88079000E+00	 0.00000000E+00
					 8.08612000E+00	 5.87491000E+00	 0.00000000E+00
					 6.69465000E+00	 7.43516000E+00	 0.00000000E+00
					 6.68796000E+00	 7.42773000E+00	 0.00000000E+00
					 5.00250000E+00	 8.66458000E+00	 0.00000000E+00
					 4.99750000E+00	 8.65592000E+00	 0.00000000E+00
					 3.09172000E+00	 9.51532000E+00	 0.00000000E+00
					 3.08862000E+00	 9.50581000E+00	 0.00000000E+00
					 1.04581000E+00	 9.95019000E+00	 0.00000000E+00
					 1.04476000E+00	 9.94025000E+00	 0.00000000E+00
					-1.04581000E+00	 9.95019000E+00	 0.00000000E+00
					-1.04476000E+00	 9.94025000E+00	 0.00000000E+00
					-3.09172000E+00	 9.51532000E+00	 0.00000000E+00
					-3.08862000E+00	 9.50581000E+00	 0.00000000E+00
					-5.00250000E+00	 8.66458000E+00	 0.00000000E+00
					-4.99750000E+00	 8.65592000E+00	 0.00000000E+00
					-6.69465000E+00	 7.43516000E+00	 0.00000000E+00
					-6.68796000E+00	 7.42773000E+00	 0.00000000E+00
					-8.09422000E+00	 5.88079000E+00	 0.00000000E+00
					-8.08612000E+00	 5.87491000E+00	 0.00000000E+00
					-9.14002000E+00	 4.06940000E+00	 0.00000000E+00
					-9.13089000E+00	 4.06533000E+00	 0.00000000E+00
					-9.78637000E+00	 2.08016000E+00	 0.00000000E+00
					-9.77659000E+00	 2.07808000E+00	 0.00000000E+00
					-1.00050000E+01	-2.09850000E-14	 0.00000000E+00
					-9.99500000E+00	-2.09746000E-14	 0.00000000E+00
					-9.78637000E+00	-2.08016000E+00	 0.00000000E+00
					-9.77659000E+00	-2.07808000E+00	 0.00000000E+00
					-9.14002000E+00	-4.06940000E+00	 0.00000000E+00
					-9.13089000E+00	-4.06533000E+00	 0.00000000E+00
					-8.09422000E+00	-5.88079000E+00	 0.00000000E+00
					-8.08612000E+00	-5.87491000E+00	 0.00000000E+00
					-6.69465000E+00	-7.43516000E+00	 0.00000000E+00
					-6.68796000E+00	-7.42773000E+00	 0.00000000E+00
					-5.00250000E+00	-8.66458000E+00	 0.00000000E+00
					-4.99750000E+00	-8.65592000E+00	 0.00000000E+00
					-3.09172000E+00	-9.51532000E+00	 0.00000000E+00
					-3.08862000E+00	-9.50581000E+00	 0.00000000E+00
					-1.04581000E+00	-9.95019000E+00	 0.00000000E+00
					-1.04476000E+00	-9.94025000E+00	 0.00000000E+00
					 1.04581000E+00	-9.95019000E+00	 0.00000000E+00
					 1.04476000E+00	-9.94025000E+00	 0.00000000E+00
					 3.09172000E+00	-9.51532000E+00	 0.00000000E+00
					 3.08862000E+00	-9.50581000E+00	 0.00000000E+00
					 5.00250000E+00	-8.66458000E+00	 0.00000000E+00
					 4.99750000E+00	-8.65592000E+00	 0.00000000E+00
					 6.69465000E+00	-7.43516000E+00	 0.00000000E+00
					 6.68796000E+00	-7.42773000E+00	 0.00000000E+00
					 8.09422000E+00	-5.88079000E+00	 0.00000000E+00
					 8.08612000E+00	-5.87491000E+00	 0.00000000E+00
					 9.14002000E+00	-4.06940000E+00	 0.00000000E+00
					 9.13089000E+00	-4.06533000E+00	 0.00000000E+00
					 9.78637000E+00	-2.08016000E+00	 0.00000000E+00
					 9.77659000E+00	-2.07808000E+00	 0.00000000E+00
					 1.00050000E+01	 0.00000000E+00	 1.96078000E+00
					 9.99500000E+00	 0.00000000E+00	 1.96078000E+00
					 1.00050000E+01	 0.00000000E+00	 3.92157000E+00
					 9.99500000E+00	 0.00000000E+00	 3.92157000E+00
					 1.00050000E+01	 0.00000000E+00	 5.88235000E+00
					 9.99500000E+00	 0.00000000E+00	 5.88235000E+00
					 1.00050000E+01	-1.74428000E-20	 7.84314000E+00
					 9.99500000E+00	 1.74428000E-20	 7.84314000E+00
					 1.00050000E+01	-1.74428000E-20	 9.80392000E+00
					 9.99500000E+00	 1.74428000E-20	 9.80392000E+00
					 1.00050000E+01	 0.00000000E+00	 1.17647000E+01
					 9.99500000E+00	 0.00000000E+00	 1.17647000E+01
					 1.00050000E+01	 0.00000000E+00	 1.37255000E+01
					 9.99500000E+00	 0.00000000E+00	 1.37255000E+01
					 1.00050000E+01	 0.00000000E+00	 1.56863000E+01
					 9.99500000E+00	 0.00000000E+00	 1.56863000E+01
					 1.00050000E+01	 0.00000000E+00	 1.76471000E+01
					 9.99500000E+00	 0.00000000E+00	 1.76471000E+01
					 1.00050000E+01	 0.00000000E+00	 1.96078000E+01
					 9.99500000E+00	 0.00000000E+00	 1.96078000E+01
					 1.00050000E+01	 0.00000000E+00	 2.15686000E+01
					 9.99500000E+00	 0.00000000E+00	 2.15686000E+01
					 1.00050000E+01	 0.00000000E+00	 2.35294000E+01
					 9.99500000E+00	 0.00000000E+00	 2.35294000E+01
					 1.00050000E+01	 0.00000000E+00	 2.54902000E+01
					 9.99500000E+00	 0.00000000E+00	 2.54902000E+01
					 1.00050000E+01	 0.00000000E+00	 2.74510000E+01
					 9.99500000E+00	 0.00000000E+00	 2.74510000E+01
					 1.00050000E+01	 0.00000000E+00	 2.94118000E+01
					 9.99500000E+00	 0.00000000E+00	 2.94118000E+01
					 1.00050000E+01	 0.00000000E+00	 3.13725000E+01
					 9.99500000E+00	 0.00000000E+00	 3.13725000E+01
					 1.00050000E+01	 0.00000000E+00	 3.33333000E+01
					 9.99500000E+00	 0.00000000E+00	 3.33333000E+01
					 1.00050000E+01	 0.00000000E+00	 3.52941000E+01
					 9.99500000E+00	 0.00000000E+00	 3.52941000E+01
					 1.00050000E+01	 0.00000000E+00	 3.72549000E+01
					 9.99500000E+00	 0.00000000E+00	 3.72549000E+01
					 1.00050000E+01	 0.00000000E+00	 3.92157000E+01
					 9.99500000E+00	 0.00000000E+00	 3.92157000E+01
					 1.00050000E+01	 0.00000000E+00	 4.11765000E+01
					 9.99500000E+00	 0.00000000E+00	 4.11765000E+01
					 1.00050000E+01	 0.00000000E+00	 4.31373000E+01
					 9.99500000E+00	 0.00000000E+00	 4.31373000E+01
					 1.00050000E+01	 0.00000000E+00	 4.50980000E+01
					 9.99500000E+00	 0.00000000E+00	 4.50980000E+01
					 1.00050000E+01	 0.00000000E+00	 4.70588000E+01
					 9.99500000E+00	 0.00000000E+00	 4.70588000E+01
					 1.00050000E+01	 0.00000000E+00	 4.90196000E+01
					 9.99500000E+00	 0.00000000E+00	 4.90196000E+01
					 1.00050000E+01	 0.00000000E+00	 5.09804000E+01
					 9.99500000E+00	 0.00000000E+00	 5.09804000E+01
					 1.00050000E+01	 0.00000000E+00	 5.29412000E+01
					 9.99500000E+00	 0.00000000E+00	 5.29412000E+01
					 1.00050000E+01	 0.00000000E+00	 5.49020000E+01
					 9.99500000E+00	 0.00000000E+00	 5.49020000E+01
					 1.00050000E+01	 0.00000000E+00	 5.68627000E+01
					 9.99500000E+00	 0.00000000E+00	 5.68627000E+01
					 1.00050000E+01	 0.00000000E+00	 5.88235000E+01
					 9.99500000E+00	 0.00000000E+00	 5.88235000E+01
					 1.00050000E+01	 0.00000000E+00	 6.07843000E+01
					 9.99500000E+00	 0.00000000E+00	 6.07843000E+01
					 1.00050000E+01	 0.00000000E+00	 6.27451000E+01
					 9.99500000E+00	 0.00000000E+00	 6.27451000E+01
					 1.00050000E+01	 0.00000000E+00	 6.47059000E+01
					 9.99500000E+00	 0.00000000E+00	 6.47059000E+01
					 1.00050000E+01	 0.00000000E+00	 6.66667000E+01
					 9.99500000E+00	 0.00000000E+00	 6.66667000E+01
					 1.00050000E+01	 0.00000000E+00	 6.86274000E+01
					 9.99500000E+00	 0.00000000E+00	 6.86274000E+01
					 1.00050000E+01	 0.00000000E+00	 7.05882000E+01
					 9.99500000E+00	 0.00000000E+00	 7.05882000E+01
					 1.00050000E+01	 0.00000000E+00	 7.25490000E+01
					 9.99500000E+00	 0.00000000E+00	 7.25490000E+01
					 1.00050000E+01	 0.00000000E+00	 7.45098000E+01
					 9.99500000E+00	 0.00000000E+00	 7.45098000E+01
					 1.00050000E+01	 0.00000000E+00	 7.64706000E+01
					 9.99500000E+00	 0.00000000E+00	 7.64706000E+01
					 1.00050000E+01	 0.00000000E+00	 7.84314000E+01
					 9.99500000E+00	 0.00000000E+00	 7.84314000E+01
					 1.00050000E+01	 0.00000000E+00	 8.03922000E+01
					 9.99500000E+00	 0.00000000E+00	 8.03922000E+01
					 1.00050000E+01	 0.00000000E+00	 8.23529000E+01
					 9.99500000E+00	 0.00000000E+00	 8.23529000E+01
					 1.00050000E+01	 0.00000000E+00	 8.43137000E+01
					 9.99500000E+00	 0.00000000E+00	 8.43137000E+01
					 1.00050000E+01	 0.00000000E+00	 8.62745000E+01
					 9.99500000E+00	 0.00000000E+00	 8.62745000E+01
					 1.00050000E+01	 0.00000000E+00	 8.82353000E+01
					 9.99500000E+00	 0.00000000E+00	 8.82353000E+01
					 1.00050000E+01	 0.00000000E+00	 9.01961000E+01
					 9.99500000E+00	 0.00000000E+00	 9.01961000E+01
					 1.00050000E+01	 0.00000000E+00	 9.21569000E+01
					 9.99500000E+00	 0.00000000E+00	 9.21569000E+01
					 1.00050000E+01	 0.00000000E+00	 9.41176000E+01
					 9.99500000E+00	 0.00000000E+00	 9.41176000E+01
					 1.00050000E+01	 0.00000000E+00	 9.60784000E+01
					 9.99500000E+00	 0.00000000E+00	 9.60784000E+01
					 1.00050000E+01	 0.00000000E+00	 9.80392000E+01
					 9.99500000E+00	 0.00000000E+00	 9.80392000E+01
					 9.78637000E+00	 2.08016000E+00	 1.00000000E+02
					 9.77659000E+00	 2.07808000E+00	 1.00000000E+02
					 9.14002000E+00	 4.06940000E+00	 1.00000000E+02
					 9.13089000E+00	 4.06533000E+00	 1.00000000E+02
					 8.09422000E+00	 5.88079000E+00	 1.00000000E+02
					 8.08612000E+00	 5.87491000E+00	 1.00000000E+02
					 6.69465000E+00	 7.43516000E+00	 1.00000000E+02
					 6.68796000E+00	 7.42773000E+00	 1.00000000E+02
					 5.00250000E+00	 8.66458000E+00	 1.00000000E+02
					 4.99750000E+00	 8.65592000E+00	 1.00000000E+02
					 3.09172000E+00	 9.51532000E+00	 1.00000000E+02
					 3.08862000E+00	 9.50581000E+00	 1.00000000E+02
					 1.04581000E+00	 9.95019000E+00	 1.00000000E+02
					 1.04476000E+00	 9.94025000E+00	 1.00000000E+02
					-1.04581000E+00	 9.95019000E+00	 1.00000000E+02
					-1.04476000E+00	 9.94025000E+00	 1.00000000E+02
					-3.09172000E+00	 9.51532000E+00	 1.00000000E+02
					-3.08862000E+00	 9.50581000E+00	 1.00000000E+02
					-5.00250000E+00	 8.66458000E+00	 1.00000000E+02
					-4.99750000E+00	 8.65592000E+00	 1.00000000E+02
					-6.69465000E+00	 7.43516000E+00	 1.00000000E+02
[...]
			<PointData>
				<DataArray type="Float32" Name="U" NumberOfComponents="3" ComponentName0="D1" ComponentName1="D2" ComponentName2="D3" format="ascii">
					-2.73489000E-09	 3.15943000E-08	-1.75517000E-06
					 2.73489000E-09	-3.15943000E-08	 1.75517000E-06
					-2.58234000E-04	 6.77475000E-03	-1.54412000E-05
					-2.58143000E-04	 6.78096000E-03	-1.35671000E-05
					 1.82546000E-08	 3.39089000E-08	 1.58264000E-05
					-1.82546000E-08	-3.39089000E-08	-1.58264000E-05
					 3.50781000E-08	 3.97839000E-08	 3.06698000E-05
					-3.50781000E-08	-3.97839000E-08	-3.06698000E-05
					 4.46665000E-08	 4.60267000E-08	 4.02084000E-05
					-4.46665000E-08	-4.60267000E-08	-4.02084000E-05
					 4.64706000E-08	 4.86095000E-08	 4.27935000E-05
					-4.64706000E-08	-4.86095000E-08	-4.27935000E-05
					 4.25113000E-08	 4.42963000E-08	 3.79780000E-05
					-4.25113000E-08	-4.42963000E-08	-3.79780000E-05
					 3.64688000E-08	 3.20071000E-08	 2.65941000E-05
					-3.64688000E-08	-3.20071000E-08	-2.65941000E-05
					 3.22010000E-08	 1.33009000E-08	 1.06099000E-05
					-3.22010000E-08	-1.33009000E-08	-1.06099000E-05
					 3.21493000E-08	-8.06867000E-09	-7.21053000E-06
					-3.21493000E-08	 8.06867000E-09	 7.21053000E-06
					 3.65998000E-08	-2.74130000E-08	-2.37859000E-05
					-3.65998000E-08	 2.74130000E-08	 2.37859000E-05
					 4.30818000E-08	-4.08218000E-08	-3.62500000E-05
					-4.30818000E-08	 4.08218000E-08	 3.62500000E-05
					 4.79381000E-08	-4.64251000E-08	-4.24470000E-05
					-4.79381000E-08	 4.64251000E-08	 4.24470000E-05
					 4.73684000E-08	-4.49853000E-08	-4.13061000E-05
					-4.73684000E-08	 4.49853000E-08	 4.13061000E-05
					 3.91081000E-08	-3.94553000E-08	-3.30257000E-05
					-3.91081000E-08	 3.94553000E-08	 3.30257000E-05
					 2.33059000E-08	-3.38605000E-08	-1.90370000E-05
					-2.33059000E-08	 3.38605000E-08	 1.90370000E-05
					 2.75472000E-09	-3.16254000E-08	-1.75721000E-06
					-2.75472000E-09	 3.16254000E-08	 1.75721000E-06
					-1.81363000E-08	-3.39177000E-08	 1.58259000E-05
					 1.81363000E-08	 3.39177000E-08	-1.58259000E-05
					-3.49437000E-08	-3.97135000E-08	 3.06711000E-05
					 3.49437000E-08	 3.97135000E-08	-3.06711000E-05
					-4.45857000E-08	-4.59224000E-08	 4.02115000E-05
					 4.45857000E-08	 4.59224000E-08	-4.02115000E-05
					-4.64270000E-08	-4.85798000E-08	 4.27985000E-05
					 4.64270000E-08	 4.85798000E-08	-4.27985000E-05
					-4.25303000E-08	-4.43467000E-08	 3.79852000E-05
					 4.25303000E-08	 4.43467000E-08	-3.79852000E-05
					-3.64879000E-08	-3.21457000E-08	 2.66029000E-05
					 3.64879000E-08	 3.21457000E-08	-2.66029000E-05
					-3.22533000E-08	-1.34906000E-08	 1.06188000E-05
					 3.22533000E-08	 1.34906000E-08	-1.06188000E-05
					-3.21520000E-08	 7.88138000E-09	-7.20269000E-06
					 3.21520000E-08	-7.88138000E-09	 7.20269000E-06
					-3.65528000E-08	 2.73078000E-08	-2.37786000E-05
					 3.65528000E-08	-2.73078000E-08	 2.37786000E-05
					-4.30303000E-08	 4.08563000E-08	-3.62422000E-05
					 4.30303000E-08	-4.08563000E-08	 3.62422000E-05
					-4.80391000E-08	 4.64691000E-08	-4.24394000E-05
					 4.80391000E-08	-4.64691000E-08	 4.24394000E-05
					-4.75040000E-08	 4.50717000E-08	-4.12999000E-05
					 4.75040000E-08	-4.50717000E-08	 4.12999000E-05
					-3.92376000E-08	 3.95034000E-08	-3.30212000E-05
					 3.92376000E-08	-3.95034000E-08	 3.30212000E-05
					-2.33605000E-08	 3.39370000E-08	-1.90338000E-05
					 2.33605000E-08	-3.39370000E-08	 1.90338000E-05
					 2.41771000E-04	-1.43929000E-04	-3.56207000E-06
					 2.41834000E-04	-1.55638000E-04	-4.62522000E-06
					-1.45605000E-04	 9.15209000E-06	-3.02456000E-06
					-1.45639000E-04	 1.63236000E-05	-5.88167000E-06
					-1.50854000E-04	 1.35122000E-05	 3.68165000E-06
					-1.50889000E-04	 2.09101000E-05	 6.48562000E-06
					 2.39042000E-04	-1.35124000E-04	 4.38883000E-06
					 2.39105000E-04	-1.46762000E-04	 5.53059000E-06
					 5.75766000E-06	 1.11943000E-05	 2.52660000E-06
					 5.76331000E-06	 1.10182000E-05	-9.76253000E-07
					-2.52382000E-04	 1.86812000E-04	 8.20865000E-06
					-2.52439000E-04	 1.99106000E-04	 9.09852000E-06
					 1.21335000E-04	 1.03515000E-04	 1.18613000E-05
					 1.21373000E-04	 9.73497000E-05	 1.47530000E-05
					 1.36942000E-04	 2.00102000E-04	 9.13577000E-06
					 1.36987000E-04	 1.93286000E-04	 6.40138000E-06
					-2.69383000E-04	 4.98890000E-04	 1.21532000E-05
					-2.69437000E-04	 5.11767000E-04	 1.07747000E-05
					-6.63691000E-05	 5.46186000E-04	 1.79194000E-05
					-6.63697000E-05	 5.48830000E-04	 2.13514000E-05
					 1.86625000E-04	 5.91592000E-04	 1.61354000E-05
					 1.86691000E-04	 5.81858000E-04	 1.52627000E-05
					-2.04713000E-04	 9.36267000E-04	 1.59424000E-05
					-2.04740000E-04	 9.45517000E-04	 1.28538000E-05
					-2.58876000E-04	 1.14664000E-03	 2.20831000E-05
					-2.58913000E-04	 1.15824000E-03	 2.46221000E-05
					 1.21329000E-04	 1.18047000E-03	 2.25395000E-05
					 1.21393000E-04	 1.17322000E-03	 2.38468000E-05
					-1.00051000E-04	 1.49393000E-03	 1.98080000E-05
					-1.00037000E-04	 1.49737000E-03	 1.62591000E-05
					-3.93709000E-04	 1.85107000E-03	 2.43759000E-05
					-3.93763000E-04	 1.86868000E-03	 2.49513000E-05
					-4.60553000E-05	 1.93475000E-03	 2.73519000E-05
					-4.60176000E-05	 1.93500000E-03	 3.02931000E-05
					-1.60807000E-05	 2.16873000E-03	 2.36797000E-05
					-1.60297000E-05	 2.16723000E-03	 2.10402000E-05
					-4.38175000E-04	 2.61081000E-03	 2.52575000E-05
					-4.38223000E-04	 2.62977000E-03	 2.36238000E-05
					-2.69643000E-04	 2.79853000E-03	 2.99013000E-05
					-2.69643000E-04	 2.80899000E-03	 3.32387000E-05
					-9.36959000E-06	 2.94912000E-03	 2.70379000E-05
					-9.29827000E-06	 2.94641000E-03	 2.63326000E-05
					-3.94979000E-04	 3.38999000E-03	 2.52337000E-05
					-3.94998000E-04	 3.40592000E-03	 2.20349000E-05
					-4.82440000E-04	 3.70225000E-03	 2.99262000E-05
					-4.82474000E-04	 3.72233000E-03	 3.22381000E-05
					-1.05416000E-04	 3.80697000E-03	 2.91879000E-05
					-1.05350000E-04	 3.80814000E-03	 3.06896000E-05
					-3.07230000E-04	 4.16645000E-03	 2.48320000E-05
					-3.07207000E-04	 4.17711000E-03	 2.12862000E-05
					-6.24403000E-04	 4.57647000E-03	 2.76499000E-05
					-6.24454000E-04	 4.60255000E-03	 2.79842000E-05
					-2.91995000E-04	 4.69373000E-03	 2.93479000E-05
					-2.91956000E-04	 4.70322000E-03	 3.23759000E-05
					-2.34548000E-04	 4.92533000E-03	 2.40853000E-05
					-2.34488000E-04	 4.93158000E-03	 2.16369000E-05
					-6.60850000E-04	 5.36482000E-03	 2.37438000E-05
					-6.60890000E-04	 5.39174000E-03	 2.18762000E-05
					-5.18777000E-04	 5.54465000E-03	 2.69857000E-05
					-5.18777000E-04	 5.56441000E-03	 3.02895000E-05
					-2.31317000E-04	 5.64939000E-03	 2.27520000E-05
					-2.31239000E-04	 5.65480000E-03	 2.23558000E-05
					-5.98777000E-04	 6.03146000E-03	 1.90268000E-05
					-5.98786000E-04	 6.05459000E-03	 1.57028000E-05
					-7.15439000E-04	 6.29009000E-03	 2.21603000E-05
					-7.15472000E-04	 6.31869000E-03	 2.43024000E-05
					-3.22937000E-04	 6.31118000E-03	 2.02958000E-05
					-3.22868000E-04	 6.32045000E-03	 2.21246000E-05
					-4.84849000E-04	 6.56109000E-03	 1.42696000E-05
					-4.84816000E-04	 6.57814000E-03	 1.08008000E-05
					-8.19552000E-04	 6.86958000E-03	 1.54541000E-05
					-8.19599000E-04	 6.90273000E-03	 1.55346000E-05
					-4.89843000E-04	 6.87021000E-03	 1.62429000E-05
					-4.89805000E-04	 6.88721000E-03	 1.94983000E-05
					-3.84745000E-04	 6.95173000E-03	 9.82300000E-06
					-3.84678000E-04	 6.96357000E-03	 7.63046000E-06
					-8.04519000E-04	 7.24382000E-03	 7.95646000E-06
					-8.04554000E-04	 7.27596000E-03	 5.90011000E-06
					-6.78000000E-04	 7.27752000E-03	 1.03766000E-05
					-6.78002000E-04	 7.30346000E-03	 1.37128000E-05
					-3.52400000E-04	 7.20444000E-03	 5.54121000E-06
					-3.52319000E-04	 7.21454000E-03	 5.49968000E-06
					-6.88536000E-04	 7.40063000E-03	 7.12642000E-07
					-6.88539000E-04	 7.42706000E-03	-2.64776000E-06
					-8.18179000E-04	 7.48674000E-03	 3.06052000E-06
					-8.18213000E-04	 7.51954000E-03	 5.10871000E-06
					-4.08593000E-04	 7.31449000E-03	 1.05266000E-06
					-4.08525000E-04	 7.32739000E-03	 3.14966000E-06
					-5.24623000E-04	 7.35305000E-03	-5.54484000E-06
					-5.24585000E-04	 7.37159000E-03	-8.81598000E-06
					-8.60243000E-04	 7.46615000E-03	-4.92866000E-06
					-8.60290000E-04	 7.50121000E-03	-5.05354000E-06
					-5.27969000E-04	 7.26988000E-03	-4.19024000E-06
					-5.27935000E-04	 7.28882000E-03	-7.03069000E-07
					-3.87338000E-04	 7.12703000E-03	-1.02885000E-05
					-3.87270000E-04	 7.13920000E-03	-1.23500000E-05
					-7.64642000E-04	 7.21484000E-03	-1.29543000E-05
					-7.64671000E-04	 7.24568000E-03	-1.47138000E-05
					-6.91870000E-04	 7.04244000E-03	-9.29146000E-06
					-6.91884000E-04	 7.06986000E-03	-6.78869000E-06
					 1.00286000E-03	 6.65488000E-03	 1.37132000E-04
					 1.00084000E-03	 6.66035000E-03	 1.20101000E-04
					 2.25588000E-03	 6.19144000E-03	 2.66144000E-04
					 2.25263000E-03	 6.19475000E-03	 2.33168000E-04
					 3.47272000E-03	 5.43729000E-03	 3.49181000E-04
					 3.46972000E-03	 5.43781000E-03	 3.05972000E-04
					 4.60239000E-03	 4.46713000E-03	 3.71741000E-04
					 4.60113000E-03	 4.46522000E-03	 3.25781000E-04
					 5.57082000E-03	 3.35572000E-03	 3.29894000E-04
					 5.57227000E-03	 3.35256000E-03	 2.89136000E-04
					 6.29527000E-03	 2.15989000E-03	 2.31035000E-04
					 6.29946000E-03	 2.15704000E-03	 2.02522000E-04
					 6.70656000E-03	 9.14359000E-04	 9.24370000E-05
					 6.71254000E-03	 9.13164000E-04	 8.10837000E-05
					 6.76673000E-03	-3.59073000E-04	-6.19066000E-05
					 6.77288000E-03	-3.58045000E-04	-5.41527000E-05
					 6.47519000E-03	-1.63861000E-03	-2.05484000E-04
					 6.47981000E-03	-1.63578000E-03	-1.79969000E-04
					 5.86540000E-03	-2.89304000E-03	-3.13642000E-04
					 5.86738000E-03	-2.88968000E-03	-2.74768000E-04
					 4.99604000E-03	-4.07659000E-03	-3.67736000E-04
					 4.99522000E-03	-4.07430000E-03	-3.22210000E-04
					 3.93821000E-03	-5.12785000E-03	-3.58327000E-04
					 3.93543000E-03	-5.12795000E-03	-3.13998000E-04
					 2.76106000E-03	-5.97470000E-03	-2.86896000E-04
					 2.75782000E-03	-5.97768000E-03	-2.51410000E-04
					 1.52013000E-03	-6.54565000E-03	-1.65690000E-04
					 1.51797000E-03	-6.55096000E-03	-1.45174000E-04
					 2.52209000E-04	-6.78528000E-03	-1.56569000E-05
					 2.52116000E-04	-6.79155000E-03	-1.36611000E-05
					-1.02046000E-03	-6.66871000E-03	 1.37194000E-04
					-1.01843000E-03	-6.67423000E-03	 1.20313000E-04
					-2.27864000E-03	-6.20921000E-03	 2.66301000E-04
					-2.27539000E-03	-6.21253000E-03	 2.33448000E-04
					-3.49293000E-03	-5.45539000E-03	 3.49235000E-04
					-3.48994000E-03	-5.45589000E-03	 3.06083000E-04
					-4.61460000E-03	-4.47888000E-03	 3.71522000E-04
					-4.61339000E-03	-4.47692000E-03	 3.25536000E-04
					-5.57483000E-03	-3.35558000E-03	 3.29317000E-04
					-5.57634000E-03	-3.35239000E-03	 2.88460000E-04
					-6.29517000E-03	-2.14801000E-03	 2.30057000E-04
					-6.29940000E-03	-2.14515000E-03	 2.01410000E-04
					-6.70650000E-03	-8.97120000E-04	 9.11361000E-05
					-6.71248000E-03	-8.95926000E-04	 7.96639000E-05
					-6.76737000E-03	 3.73007000E-04	-6.33044000E-05
					-6.77348000E-03	 3.71981000E-04	-5.56113000E-05
					-6.47362000E-03	 1.64295000E-03	-2.06663000E-04
					-6.47819000E-03	 1.64014000E-03	-1.81128000E-04
					-5.85759000E-03	 2.88614000E-03	-3.14386000E-04
					-5.85951000E-03	 2.88281000E-03	-2.75417000E-04
					-4.98002000E-03	 4.06152000E-03	-3.68010000E-04
					-4.97917000E-03	 4.05926000E-03	-3.22344000E-04
					-3.91691000E-03	 5.11063000E-03	-3.58225000E-04
					-3.91413000E-03	 5.11074000E-03	-3.13767000E-04
					-2.74226000E-03	 5.96038000E-03	-2.86568000E-04
					-2.73904000E-03	 5.96332000E-03	-2.51024000E-04
					-1.51201000E-03	 6.53485000E-03	-1.65317000E-04
					-1.50986000E-03	 6.54011000E-03	-1.44841000E-04
					-2.09993000E-03	-5.83231000E-04	 3.17371000E-05
					-2.09822000E-03	-5.94001000E-04	 4.13719000E-05
					 1.28651000E-03	 2.82116000E-04	 2.66042000E-05
					 1.28542000E-03	 2.88703000E-04	 5.23117000E-05
					 1.32526000E-03	 2.94457000E-04	-3.38373000E-05
					 1.32413000E-03	 3.01252000E-04	-5.91353000E-05
					-2.08515000E-03	-5.71833000E-04	-3.98569000E-05
					-2.08345000E-03	-5.82540000E-04	-5.01392000E-05
					-3.00334000E-05	 4.07878000E-06	-2.34200000E-05
					-3.00447000E-05	 3.90687000E-06	 8.42015000E-06
					 2.20165000E-03	 6.45397000E-04	-7.47120000E-05
					 2.19978000E-03	 6.56686000E-04	-8.31078000E-05
					-1.10957000E-03	-1.37654000E-04	-1.07015000E-04
					-1.10872000E-03	-1.43338000E-04	-1.33039000E-04
					-1.22387000E-03	-7.01246000E-05	-8.21876000E-05
					-1.22294000E-03	-7.64116000E-05	-5.71465000E-05
					 2.30232000E-03	 9.63503000E-04	-1.09698000E-04
					 2.30031000E-03	 9.75319000E-04	-9.76519000E-05
					 4.62847000E-04	 6.17487000E-04	-1.61383000E-04
					 4.62335000E-04	 6.19890000E-04	-1.92358000E-04
					-1.75506000E-03	 1.89255000E-04	-1.44478000E-04
					-1.75377000E-03	 1.80272000E-04	-1.36350000E-04
					 1.64453000E-03	 1.23966000E-03	-1.42845000E-04
					 1.64299000E-03	 1.24812000E-03	-1.15100000E-04
					 2.06022000E-03	 1.52813000E-03	-1.98469000E-04
					 2.05830000E-03	 1.53875000E-03	-2.21480000E-04
					-1.32270000E-03	 8.41310000E-04	-2.01880000E-04
					-1.32186000E-03	 8.34591000E-04	-2.13789000E-04
					 5.90204000E-04	 1.54605000E-03	-1.76932000E-04
					 5.89425000E-04	 1.54915000E-03	-1.44592000E-04
					 3.12872000E-03	 2.42528000E-03	-2.18486000E-04
					 3.12580000E-03	 2.44141000E-03	-2.23834000E-04
					 9.71661000E-06	 1.84195000E-03	-2.45356000E-04
					 9.33459000E-06	 1.84210000E-03	-2.72096000E-04
					-3.07675000E-04	 1.99709000E-03	-2.11385000E-04
					-3.07839000E-04	 1.99563000E-03	-1.87446000E-04
					 3.35607000E-03	 3.19636000E-03	-2.25487000E-04
					 3.35284000E-03	 3.21370000E-03	-2.10620000E-04
					 1.82906000E-03	 3.05042000E-03	-2.68043000E-04
					 1.82704000E-03	 3.05994000E-03	-2.98317000E-04
					-5.41087000E-04	 2.68995000E-03	-2.41857000E-04
					-5.41197000E-04	 2.68734000E-03	-2.35788000E-04
					 2.79650000E-03	 3.81871000E-03	-2.25077000E-04
					 2.79359000E-03	 3.83324000E-03	-1.95716000E-04
					 3.53952000E-03	 4.27370000E-03	-2.67683000E-04
					 3.53594000E-03	 4.29204000E-03	-2.88714000E-04
					 1.41744000E-04	 3.65125000E-03	-2.61392000E-04
					 1.40929000E-04	 3.65220000E-03	-2.75288000E-04
					 1.83693000E-03	 4.35358000E-03	-2.21477000E-04
					 1.83466000E-03	 4.36324000E-03	-1.89306000E-04
					 4.59829000E-03	 5.33056000E-03	-2.47029000E-04
					 4.59370000E-03	 5.35439000E-03	-2.49794000E-04
					 1.62033000E-03	 4.80923000E-03	-2.62991000E-04
					 1.61815000E-03	 4.81781000E-03	-2.90787000E-04
					 1.03303000E-03	 4.90480000E-03	-2.15661000E-04
					 1.03129000E-03	 4.91039000E-03	-1.93463000E-04
					 4.73265000E-03	 6.10925000E-03	-2.12501000E-04
					 4.72781000E-03	 6.13383000E-03	-1.95527000E-04
					 3.44532000E-03	 6.00673000E-03	-2.42495000E-04
					 3.44150000E-03	 6.02472000E-03	-2.72413000E-04
					 8.69067000E-04	 5.55883000E-03	-2.04942000E-04
					 8.67336000E-04	 5.56362000E-03	-2.01455000E-04
					 4.04129000E-03	 6.59651000E-03	-1.71772000E-04
					 4.03690000E-03	 6.61759000E-03	-1.41661000E-04
					 5.01692000E-03	 7.04990000E-03	-2.00360000E-04
					 5.01169000E-03	 7.07599000E-03	-2.19847000E-04
					 1.55339000E-03	 6.33378000E-03	-1.84395000E-04
					 1.55099000E-03	 6.34211000E-03	-2.00689000E-04
					 2.94423000E-03	 6.86702000E-03	-1.30814000E-04
					 2.94064000E-03	 6.88249000E-03	-9.96201000E-05
					 5.82295000E-03	 7.77221000E-03	-1.41945000E-04
					 5.81696000E-03	 7.80247000E-03	-1.42728000E-04
					 2.92867000E-03	 7.15753000E-03	-1.49278000E-04
					 2.92504000E-03	 7.17293000E-03	-1.78429000E-04
					 2.00424000E-03	 7.03846000E-03	-9.20868000E-05
					 2.00136000E-03	 7.04912000E-03	-7.23288000E-05
					 5.63866000E-03	 8.08861000E-03	-7.57516000E-05
					 5.63276000E-03	 8.11793000E-03	-5.73166000E-05
					 4.52750000E-03	 7.88431000E-03	-9.77000000E-05
					 4.52250000E-03	 7.90793000E-03	-1.27559000E-04
					 1.69100000E-03	 7.21173000E-03	-5.43195000E-05
					 1.68834000E-03	 7.22078000E-03	-5.39497000E-05
					 4.61519000E-03	 8.01966000E-03	-1.10311000E-05
					 4.61010000E-03	 8.04372000E-03	 1.92481000E-05
					 5.75783000E-03	 8.34422000E-03	-3.21329000E-05
					 5.75179000E-03	 8.37414000E-03	-5.04162000E-05
					 2.19139000E-03	 7.42218000E-03	-1.39938000E-05
					 2.18830000E-03	 7.43378000E-03	-3.29547000E-05
					 3.20254000E-03	 7.67359000E-03	 4.54918000E-05
					 3.19862000E-03	 7.69039000E-03	 7.49924000E-05
					 6.16468000E-03	 8.41054000E-03	 3.99155000E-05
					 6.15831000E-03	 8.44252000E-03	 4.12818000E-05
					 3.27778000E-03	 7.61004000E-03	 3.34956000E-05
					 3.27381000E-03	 7.62721000E-03	 1.87220000E-06
					 2.06608000E-03	 7.21643000E-03	 8.88072000E-05
					 2.06313000E-03	 7.22736000E-03	 1.07589000E-04
					 5.41450000E-03	 8.01138000E-03	 1.13182000E-04
					 5.40880000E-03	 8.03948000E-03	 1.29243000E-04
					 4.80723000E-03	 7.71824000E-03	 8.04943000E-05
					 4.80206000E-03	 7.74320000E-03	 5.77393000E-05
					-3.81052000E-03	-1.80677000E-03	 6.15551000E-05
					-3.80820000E-03	-1.81470000E-03	 8.02216000E-05
					 2.32865000E-03	 1.04370000E-03	 5.16496000E-05
					 2.32715000E-03	 1.04852000E-03	 1.01473000E-04
					 2.39946000E-03	 1.07847000E-03	-6.54773000E-05
					 2.39791000E-03	 1.08344000E-03	-1.14503000E-04
					-3.78272000E-03	-1.78793000E-03	-7.71730000E-05
					-3.78042000E-03	-1.79582000E-03	-9.70977000E-05
					-5.59651000E-05	-1.67684000E-05	-4.52786000E-05
					-5.59965000E-05	-1.69213000E-05	 1.63959000E-05
					 3.99543000E-03	 1.92136000E-03	-1.44671000E-04
					 3.99285000E-03	 1.92962000E-03	-1.60905000E-04
					-2.00018000E-03	-8.11936000E-04	-2.07343000E-04
					-1.99904000E-03	-8.16155000E-04	-2.57781000E-04
					-2.20468000E-03	-8.29127000E-04	-1.59264000E-04
					-2.20343000E-03	-8.33801000E-04	-1.10776000E-04
					 4.19707000E-03	 2.24980000E-03	-2.12560000E-04
					 4.19428000E-03	 2.25842000E-03	-1.89176000E-04
					 8.74517000E-04	 8.06669000E-04	-3.12774000E-04
					 8.73765000E-04	 8.08352000E-04	-3.72800000E-04
					-3.13895000E-03	-9.45493000E-04	-2.80090000E-04
					-3.13724000E-03	-9.52192000E-04	-2.64364000E-04
					 3.03562000E-03	 2.06752000E-03	-2.76935000E-04
					 3.03344000E-03	 2.07362000E-03	-2.23155000E-04
					 3.80366000E-03	 2.57061000E-03	-3.84721000E-04
					 3.80094000E-03	 2.57827000E-03	-4.29309000E-04
					-2.31485000E-03	-1.27537000E-04	-3.91418000E-04
					-2.31381000E-03	-1.32631000E-04	-4.14480000E-04
					 1.16640000E-03	 1.66253000E-03	-3.43099000E-04
					 1.16521000E-03	 1.66462000E-03	-2.80459000E-04
					 5.78259000E-03	 3.99132000E-03	-4.23605000E-04
					 5.77847000E-03	 4.00296000E-03	-4.33955000E-04
					 1.45980000E-04	 1.54592000E-03	-4.75694000E-04
					 1.45306000E-04	 1.54581000E-03	-5.27493000E-04
					-4.12346000E-04	 1.47671000E-03	-4.09959000E-04
					-4.12738000E-04	 1.47538000E-03	-3.63578000E-04
					 6.24575000E-03	 4.77984000E-03	-4.37323000E-04
					 6.24114000E-03	 4.79231000E-03	-4.08522000E-04
					 3.49477000E-03	 3.69904000E-03	-5.19744000E-04
					 3.49180000E-03	 3.70573000E-03	-5.78396000E-04
					-7.80978000E-04	 1.91095000E-03	-4.69039000E-04
					-7.81354000E-04	 1.90871000E-03	-4.57247000E-04
					 5.28687000E-03	 4.95037000E-03	-4.36582000E-04
					 5.28263000E-03	 4.96068000E-03	-3.79734000E-04
					 6.64939000E-03	 5.79641000E-03	-5.19141000E-04
					 6.64424000E-03	 5.80950000E-03	-5.59877000E-04
					 5.11710000E-04	 3.14432000E-03	-5.06902000E-04
					 5.10308000E-04	 3.14461000E-03	-5.33795000E-04
					 3.60519000E-03	 4.79723000E-03	-4.29613000E-04
					 3.60178000E-03	 4.80389000E-03	-3.67286000E-04
					 8.62586000E-03	 7.34681000E-03	-4.79109000E-04
					 8.61925000E-03	 7.36386000E-03	-4.84494000E-04
					 3.24603000E-03	 5.04169000E-03	-5.09986000E-04
					 3.24271000E-03	 5.04749000E-03	-5.63797000E-04