<?xml version="1.0"?>
<VTKFile type="UnstructuredGrid" version="0.1" byte_order="LittleEndian">
	<UnstructuredGrid>
		<Piece NumberOfPoints="3120" NumberOfCells="1530">
			<Points>
				<DataArray type="Float64" NumberOfComponents="3" format="ascii">
					 1.00050000E+01	 0.00000000E+00	 0.00000000E+00
					 9.99500000E+00	 0.00000000E+00	 0.00000000E+00
					 1.00050000E+01	 0.00000000E+00	 1.00000000E+02
					 9.99500000E+00	 0.00000000E+00	 1.00000000E+02
					 9.78637000E+00	 2.08016000E+00	 0.00000000E+00
					 9.77659000E+00	 2.07808000E+00	 0.00000000E+00
					 9.14002000E+00	 4.06940000E+00	 0.00000000E+00
					 9.13089000E+00	 4.06533000E+00	 0.00000000E+00
					 8.09422000E+00	 5.88079000E+00	 0.00000000E+00
					 8.08612000E+00	 5.87491000E+00	 0.00000000E+00
					 6.69465000E+00	 7.43516000E+00	 0.00000000E+00
					 6.68796000E+00	 7.42773000E+00	 0.00000000E+00
					 5.00250000E+00	 8.66458000E+00	 0.00000000E+00
					 4.99750000E+00	 8.65592000E+00	 0.00000000E+00
					 3.09172000E+00	 9.51532000E+00	 0.00000000E+00
					 3.08862000E+00	 9.50581000E+00	 0.00000000E+00
					 1.04581000E+00	 9.95019000E+00	 0.00000000E+00
					 1.04476000E+00	 9.94025000E+00	 0.00000000E+00
					-1.04581000E+00	 9.95019000E+00	 0.00000000E+00
					-1.04476000E+00	 9.94025000E+00	 0.00000000E+00
					-3.09172000E+00	 9.51532000E+00	 0.00000000E+00
					-3.08862000E+00	 9.50581000E+00	 0.00000000E+00
					-5.00250000E+00	 8.66458000E+00	 0.00000000E+00
					-4.99750000E+00	 8.65592000E+00	 0.00000000E+00
					-6.69465000E+00	 7.43516000E+00	 0.00000000E+00
					-6.68796000E+00	 7.42773000E+00	 0.00000000E+00
					-8.09422000E+00	 5.88079000E+00	 0.00000000E+00
					-8.08612000E+00	 5.87491000E+00	 0.00000000E+00
					-9.14002000E+00	 4.06940000E+00	 0.00000000E+00
					-9.13089000E+00	 4.06533000E+00	 0.00000000E+00
					-9.78637000E+00	 2.08016000E+00	 0.00000000E+00
					-9.77659000E+00	 2.07808000E+00	 0.00000000E+00
					-1.00050000E+01	-2.09850000E-14	 0.00000000E+00
					-9.99500000E+00	-2.09746000E-14	 0.00000000E+00
					-9.78637000E+00	-2.08016000E+00	 0.00000000E+00
					-9.77659000E+00	-2.07808000E+00	 0.00000000E+00
					-9.14002000E+00	-4.06940000E+00	 0.00000000E+00
					-9.13089000E+00	-4.06533000E+00	 0.00000000E+00
					-8.09422000E+00	-5.88079000E+00	 0.00000000E+00
					-8.08612000E+00	-5.87491000E+00	 0.00000000E+00
					-6.69465000E+00	-7.43516000E+00	 0.00000000E+00
					-6.68796000E+00	-7.42773000E+00	 0.00000000E+00
					-5.00250000E+00	-8.66458000E+00	 0.00000000E+00
					-4.99750000E+00	-8.65592000E+00	 0.00000000E+00
					-3.09172000E+00	-9.51532000E+00	 0.00000000E+00
					-3.08862000E+00	-9.50581000E+00	 0.00000000E+00
					-1.04581000E+00	-9.95019000E+00	 0.00000000E+00
					-1.04476000E+00	-9.94025000E+00	 0.00000000E+00
					 1.04581000E+00	-9.95019000E+00	 0.00000000E+00
					 1.04476000E+00	-9.94025000E+00	 0.00000000E+00
					 3.09172000E+00	-9.51532000E+00	 0.00000000E+00
					 3.08862000E+00	-9.50581000E+00	 0.00000000E+00
					 5.00250000E+00	-8.66458000E+00	 0.00000000E+00
					 4.99750000E+00	-8.65592000E+00	 0.00000000E+00
					 6.69465000E+00	-7.43516000E+00	 0.00000000E+00
					 6.68796000E+00	-7.42773000E+00	 0.00000000E+00
					 8.09422000E+00	-5.88079000E+00	 0.00000000E+00
					 8.08612000E+00	-5.87491000E+00	 0.00000000E+00
					 9.14002000E+00	-4.06940000E+00	 0.00000000E+00
					 9.13089000E+00	-4.06533000E+00	 0.00000000E+00
					 9.78637000E+00	-2.08016000E+00	 0.00000000E+00
					 9.77659000E+00	-2.07808000E+00	 0.00000000E+00
					 1.00050000E+01	 0.00000000E+00	 1.96078000E+00
					 9.99500000E+00	 0.00000000E+00	 1.96078000E+00
					 1.00050000E+01	 0.00000000E+00	 3.92157000E+00
					 9.99500000E+00	 0.00000000E+00	 3.92157000E+00
					 1.00050000E+01	 0.00000000E+00	 5.88235000E+00
					 9.99500000E+00	 0.00000000E+00	 5.88235000E+00
					 1.00050000E+01	-1.74428000E-20	 7.84314000E+00
					 9.99500000E+00	 1.74428000E-20	 7.84314000E+00
					 1.00050000E+01	-1.74428000E-20	 9.80392000E+00
					 9.99500000E+00	 1.74428000E-20	 9.80392000E+00
					 1.00050000E+01	 0.00000000E+00	 1.17647000E+01
					 9.99500000E+00	 0.00000000E+00	 1.17647000E+01
					 1.00050000E+01	 0.00000000E+00	 1.37255000E+01
					 9.99500000E+00	 0.00000000E+00	 1.37255000E+01
					 1.00050000E+01	 0.00000000E+00	 1.56863000E+01
					 9.99500000E+00	 0.00000000E+00	 1.56863000E+01
					 1.00050000E+01	 0.00000000E+00	 1.76471000E+01
					 9.99500000E+00	 0.00000000E+00	 1.76471000E+01
					 1.00050000E+01	 0.00000000E+00	 1.96078000E+01
					 9.99500000E+00	 0.00000000E+00	 1.96078000E+01
					 1.00050000E+01	 0.00000000E+00	 2.15686000E+01
					 9.99500000E+00	 0.00000000E+00	 2.15686000E+01
					 1.00050000E+01	 0.00000000E+00	 2.35294000E+01
					 9.99500000E+00	 0.00000000E+00	 2.35294000E+01
					 1.00050000E+01	 0.00000000E+00	 2.54902000E+01
					 9.99500000E+00	 0.00000000E+00	 2.54902000E+01
					 1.00050000E+01	 0.00000000E+00	 2.74510000E+01
					 9.99500000E+00	 0.00000000E+00	 2.74510000E+01
					 1.00050000E+01	 0.00000000E+00	 2.94118000E+01
					 9.99500000E+00	 0.00000000E+00	 2.94118000E+01
					 1.00050000E+01	 0.00000000E+00	 3.13725000E+01
					 9.99500000E+00	 0.00000000E+00	 3.13725000E+01
					 1.00050000E+01	 0.00000000E+00	 3.33333000E+01
					 9.99500000E+00	 0.00000000E+00	 3.33333000E+01
					 1.00050000E+01	 0.00000000E+00	 3.52941000E+01
					 9.99500000E+00	 0.00000000E+00	 3.52941000E+01
					 1.00050000E+01	 0.00000000E+00	 3.72549000E+01
					 9.99500000E+00	 0.00000000E+00	 3.72549000E+01
					 1.00050000E+01	 0.00000000E+00	 3.92157000E+01
					 9.99500000E+00	 0.00000000E+00	 3.92157000E+01
					 1.00050000E+01	 0.00000000E+00	 4.11765000E+01
					 9.99500000E+00	 0.00000000E+00	 4.11765000E+01
					 1.00050000E+01	 0.00000000E+00	 4.31373000E+01
					 9.99500000E+00	 0.00000000E+00	 4.31373000E+01
					 1.00050000E+01	 0.00000000E+00	 4.50980000E+01
					 9.99500000E+00	 0.00000000E+00	 4.50980000E+01
					 1.00050000E+01	 0.00000000E+00	 4.70588000E+01
					 9.99500000E+00	 0.00000000E+00	 4.70588000E+01
					 1.00050000E+01	 0.00000000E+00	 4.90196000E+01
					 9.99500000E+00	 0.00000000E+00	 4.90196000E+01
					 1.00050000E+01	 0.00000000E+00	 5.09804000E+01
					 9.99500000E+00	 0.00000000E+00	 5.09804000E+01
					 1.00050000E+01	 0.00000000E+00	 5.29412000E+01
					 9.99500000E+00	 0.00000000E+00	 5.29412000E+01
					 1.00050000E+01	 0.00000000E+00	 5.49020000E+01
					 9.99500000E+00	 0.00000000E+00	 5.49020000E+01
					 1.00050000E+01	 0.00000000E+00	 5.68627000E+01
					 9.99500000E+00	 0.00000000E+00	 5.68627000E+01
					 1.00050000E+01	 0.00000000E+00	 5.88235000E+01
					 9.99500000E+00	 0.00000000E+00	 5.88235000E+01
					 1.00050000E+01	 0.00000000E+00	 6.07843000E+01
					 9.99500000E+00	 0.00000000E+00	 6.07843000E+01
					 1.00050000E+01	 0.00000000E+00	 6.27451000E+01
					 9.99500000E+00	 0.00000000E+00	 6.27451000E+01
					 1.00050000E+01	 0.00000000E+00	 6.47059000E+01
					 9.99500000E+00	 0.00000000E+00	 6.47059000E+01
					 1.00050000E+01	 0.00000000E+00	 6.66667000E+01
					 9.99500000E+00	 0.00000000E+00	 6.66667000E+01
					 1.00050000E+01	 0.00000000E+00	 6.86274000E+01
					 9.99500000E+00	 0.00000000E+00	 6.86274000E+01
					 1.00050000E+01	 0.00000000E+00	 7.05882000E+01
					 9.99500000E+00	 0.00000000E+00	 7.05882000E+01
					 1.00050000E+01	 0.00000000E+00	 7.25490000E+01
					 9.99500000E+00	 0.00000000E+00	 7.25490000E+01
					 1.00050000E+01	 0.00000000E+00	 7.45098000E+01
					 9.99500000E+00	 0.00000000E+00	 7.45098000E+01
					 1.00050000E+01	 0.00000000E+00	 7.64706000E+01
					 9.99500000E+00	 0.00000000E+00	 7.64706000E+01
					 1.00050000E+01	 0.00000000E+00	 7.84314000E+01
					 9.99500000E+00	 0.00000000E+00	 7.84314000E+01
					 1.00050000E+01	 0.00000000E+00	 8.03922000E+01
					 9.99500000E+00	 0.00000000E+00	 8.03922000E+01
					 1.00050000E+01	 0.00000000E+00	 8.23529000E+01
					 9.99500000E+00	 0.00000000E+00	 8.23529000E+01
					 1.00050000E+01	 0.00000000E+00	 8.43137000E+01
					 9.99500000E+00	 0.00000000E+00	 8.43137000E+01
					 1.00050000E+01	 0.00000000E+00	 8.62745000E+01
					 9.99500000E+00	 0.00000000E+00	 8.62745000E+01
					 1.00050000E+01	 0.00000000E+00	 8.82353000E+01
					 9.99500000E+00	 0.00000000E+00	 8.82353000E+01
					 1.00050000E+01	 0.00000000E+00	 9.01961000E+01
					 9.99500000E+00	 0.00000000E+00	 9.01961000E+01
					 1.00050000E+01	 0.00000000E+00	 9.21569000E+01
					 9.99500000E+00	 0.00000000E+00	 9.21569000E+01
					 1.00050000E+01	 0.00000000E+00	 9.41176000E+01
					 9.99500000E+00	 0.00000000E+00	 9.41176000E+01
					 1.00050000E+01	 0.00000000E+00	 9.60784000E+01
					 9.99500000E+00	 0.00000000E+00	 9.60784000E+01
					 1.00050000E+01	 0.00000000E+00	 9.80392000E+01
					 9.99500000E+00	 0.00000000E+00	 9.80392000E+01
					 9.78637000E+00	 2.08016000E+00	 1.00000000E+02
					 9.77659000E+00	 2.07808000E+00	 1.00000000E+02
					 9.14002000E+00	 4.06940000E+00	 1.00000000E+02
					 9.13089000E+00	 4.06533000E+00	 1.00000000E+02
					 8.09422000E+00	 5.88079000E+00	 1.00000000E+02
					 8.08612000E+00	 5.87491000E+00	 1.00000000E+02
					 6.69465000E+00	 7.43516000E+00	 1.00000000E+02
					 6.68796000E+00	 7.42773000E+00	 1.00000000E+02
					 5.00250000E+00	 8.66458000E+00	 1.00000000E+02
					 4.99750000E+00	 8.65592000E+00	 1.00000000E+02
					 3.09172000E+00	 9.51532000E+00	 1.00000000E+02
					 3.08862000E+00	 9.50581000E+00	 1.00000000E+02
					 1.04581000E+00	 9.95019000E+00	 1.00000000E+02
					 1.04476000E+00	 9.94025000E+00	 1.00000000E+02
					-1.04581000E+00	 9.95019000E+00	 1.00000000E+02
					-1.04476000E+00	 9.94025000E+00	 1.00000000E+02
					-3.09172000E+00	 9.51532000E+00	 1.00000000E+02
					-3.08862000E+00	 9.50581000E+00	 1.00000000E+02
					-5.00250000E+00	 8.66458000E+00	 1.00000000E+02
					-4.99750000E+00	 8.65592000E+00	 1.00000000E+02
					-6.69465000E+00	 7.43516000E+00	 1.00000000E+02
[...]
			<PointData>
				<DataArray type="Float32" Name="U" NumberOfComponents="3" ComponentName0="D1" ComponentName1="D2" ComponentName2="D3" format="ascii">
					 1.86996000E-09	-1.09292000E-14	 2.78849000E-05
					-1.86996000E-09	 1.09292000E-14	-2.78849000E-05
					 6.71642000E-03	 3.91416000E-09	 1.03229000E-04
					 6.71843000E-03	 3.93839000E-09	 1.53095000E-04
					 1.82908000E-09	 3.88779000E-10	 2.78849000E-05
					-1.82908000E-09	-3.88779000E-10	-2.78849000E-05
					 1.70827000E-09	 7.60574000E-10	 2.78849000E-05
					-1.70827000E-09	-7.60574000E-10	-2.78849000E-05
					 1.51282000E-09	 1.09913000E-09	 2.78849000E-05
					-1.51282000E-09	-1.09913000E-09	-2.78849000E-05
					 1.25126000E-09	 1.38966000E-09	 2.78849000E-05
					-1.25126000E-09	-1.38966000E-09	-2.78849000E-05
					 9.35001000E-10	 1.61947000E-09	 2.78849000E-05
					-9.35001000E-10	-1.61947000E-09	-2.78849000E-05
					 5.77862000E-10	 1.77849000E-09	 2.78849000E-05
					-5.77862000E-10	-1.77849000E-09	-2.78849000E-05
					 1.95459000E-10	 1.85978000E-09	 2.78849000E-05
					-1.95459000E-10	-1.85978000E-09	-2.78849000E-05
					-1.95461000E-10	 1.85976000E-09	 2.78849000E-05
					 1.95461000E-10	-1.85976000E-09	-2.78849000E-05
					-5.77875000E-10	 1.77845000E-09	 2.78849000E-05
					 5.77875000E-10	-1.77845000E-09	-2.78849000E-05
					-9.34975000E-10	 1.61943000E-09	 2.78849000E-05
					 9.34975000E-10	-1.61943000E-09	-2.78849000E-05
					-1.25122000E-09	 1.38964000E-09	 2.78849000E-05
					 1.25122000E-09	-1.38964000E-09	-2.78849000E-05
					-1.51280000E-09	 1.09912000E-09	 2.78849000E-05
					 1.51280000E-09	-1.09912000E-09	-2.78849000E-05
					-1.70828000E-09	 7.60561000E-10	 2.78849000E-05
					 1.70828000E-09	-7.60561000E-10	-2.78849000E-05
					-1.82910000E-09	 3.88767000E-10	 2.78849000E-05
					 1.82910000E-09	-3.88767000E-10	-2.78849000E-05
					-1.86998000E-09	 2.57134000E-14	 2.78849000E-05
					 1.86998000E-09	-2.57134000E-14	-2.78849000E-05
					-1.82915000E-09	-3.88778000E-10	 2.78849000E-05
					 1.82915000E-09	 3.88778000E-10	-2.78849000E-05
					-1.70834000E-09	-7.60609000E-10	 2.78849000E-05
					 1.70834000E-09	 7.60609000E-10	-2.78849000E-05
					-1.51286000E-09	-1.09918000E-09	 2.78849000E-05
					 1.51286000E-09	 1.09918000E-09	-2.78849000E-05
					-1.25127000E-09	-1.38966000E-09	 2.78849000E-05
					 1.25127000E-09	 1.38966000E-09	-2.78849000E-05
					-9.34983000E-10	-1.61943000E-09	 2.78849000E-05
					 9.34983000E-10	 1.61943000E-09	-2.78849000E-05
					-5.77848000E-10	-1.77841000E-09	 2.78849000E-05
					 5.77848000E-10	 1.77841000E-09	-2.78849000E-05
					-1.95434000E-10	-1.85967000E-09	 2.78849000E-05
					 1.95434000E-10	 1.85967000E-09	-2.78849000E-05
					 1.95461000E-10	-1.85967000E-09	 2.78849000E-05
					-1.95461000E-10	 1.85967000E-09	-2.78849000E-05
					 5.77854000E-10	-1.77841000E-09	 2.78849000E-05
					-5.77854000E-10	 1.77841000E-09	-2.78849000E-05
					 9.34959000E-10	-1.61946000E-09	 2.78849000E-05
					-9.34959000E-10	 1.61946000E-09	-2.78849000E-05
					 1.25128000E-09	-1.38967000E-09	 2.78849000E-05
					-1.25128000E-09	 1.38967000E-09	-2.78849000E-05
					 1.51287000E-09	-1.09917000E-09	 2.78849000E-05
					-1.51287000E-09	 1.09917000E-09	-2.78849000E-05
					 1.70835000E-09	-7.60585000E-10	 2.78849000E-05
					-1.70835000E-09	 7.60585000E-10	-2.78849000E-05
					 1.82912000E-09	-3.88801000E-10	 2.78849000E-05
					-1.82912000E-09	 3.88801000E-10	-2.78849000E-05
					-4.83574000E-03	-8.69717000E-12	 1.39949000E-04
					-4.83718000E-03	-7.99680000E-12	 1.46509000E-04
					 1.13743000E-03	-6.08556000E-11	 2.25774000E-04
					 1.13777000E-03	-6.22250000E-11	 2.79999000E-04
					 4.56844000E-03	-1.26498000E-10	 9.33965000E-05
					 4.56980000E-03	-1.28044000E-10	 7.40864000E-05
					-2.21153000E-03	-2.10720000E-10	 3.87238000E-05
					-2.21219000E-03	-2.12105000E-10	-1.09612000E-05
					-4.04842000E-03	-3.20419000E-10	 1.83947000E-04
					-4.04963000E-03	-3.24709000E-10	 2.14939000E-04
					 3.16342000E-03	-4.34753000E-10	 2.04475000E-04
					 3.16436000E-03	-4.39466000E-10	 2.46873000E-04
					 3.30457000E-03	-5.60231000E-10	 5.44250000E-05
					 3.30556000E-03	-5.66118000E-10	 1.34638000E-05
					-3.94041000E-03	-6.96829000E-10	 6.91779000E-05
					-3.94159000E-03	-7.05893000E-10	 3.64118000E-05
					-2.37803000E-03	-7.98656000E-10	 2.15759000E-04
					-2.37874000E-03	-8.08272000E-10	 2.64425000E-04
					 4.49956000E-03	-8.75059000E-10	 1.66541000E-04
					 4.50090000E-03	-8.84805000E-10	 1.87864000E-04
					 1.32002000E-03	-9.41615000E-10	 3.15320000E-05
					 1.32041000E-03	-9.53648000E-10	-2.21470000E-05
					-4.80993000E-03	-9.89744000E-10	 1.12495000E-04
					-4.81137000E-03	-1.00198000E-09	 1.03794000E-04
					-1.89027000E-04	-9.96543000E-10	 2.28467000E-04
					-1.89084000E-04	-1.00946000E-09	 2.84192000E-04
					 4.85438000E-03	-9.50559000E-10	 1.20235000E-04
					 4.85583000E-03	-9.64109000E-10	 1.15833000E-04
					-9.52409000E-04	-8.62971000E-10	 2.97125000E-05
					-9.52693000E-04	-8.73939000E-10	-2.49775000E-05
					-4.63044000E-03	-7.60785000E-10	 1.59229000E-04
					-4.63182000E-03	-7.72423000E-10	 1.76490000E-04
					 2.04119000E-03	-6.09639000E-10	 2.19298000E-04
					 2.04180000E-03	-6.21753000E-10	 2.69929000E-04
					 4.15049000E-03	-3.87027000E-10	 7.56569000E-05
					 4.15173000E-03	-3.95119000E-10	 4.64906000E-05
					-3.01711000E-03	-1.34581000E-10	 4.93631000E-05
					-3.01801000E-03	-1.41409000E-10	 5.58973000E-06
					-3.44107000E-03	 1.52432000E-10	 1.99186000E-04
					-3.44210000E-03	 1.46982000E-10	 2.38645000E-04
					 3.82623000E-03	 4.93069000E-10	 1.90252000E-04
					 3.82737000E-03	 4.92539000E-10	 2.24747000E-04
					 2.54141000E-03	 8.42043000E-10	 4.25293000E-05
					 2.54217000E-03	 8.44115000E-10	-5.04072000E-06
					-4.42380000E-03	 1.19596000E-09	 8.61984000E-05
					-4.42512000E-03	 1.19989000E-09	 6.28883000E-05
					-1.50123000E-03	 1.58393000E-09	 2.23653000E-04
					-1.50168000E-03	 1.59288000E-09	 2.76704000E-04
					 4.77679000E-03	 1.96579000E-09	 1.47663000E-04
					 4.77822000E-03	 1.97796000E-09	 1.58500000E-04
					 3.78057000E-04	 2.31782000E-09	 2.80768000E-05
					 3.78170000E-04	 2.33137000E-09	-2.75222000E-05
					-4.86568000E-03	 2.66645000E-09	 1.32185000E-04
					-4.86713000E-03	 2.68315000E-09	 1.34422000E-04
					 7.66029000E-04	 3.01224000E-09	 2.27292000E-04
					 7.66257000E-04	 3.03167000E-09	 2.82365000E-04
					 4.68557000E-03	 3.33193000E-09	 1.00821000E-04
					 4.68697000E-03	 3.35359000E-09	 8.56349000E-05
					-1.86775000E-03	 3.61860000E-09	 3.54513000E-05
					-1.86831000E-03	 3.64177000E-09	-1.60508000E-05
					-4.24639000E-03	 3.88384000E-09	 1.77293000E-04
					-4.24766000E-03	 3.90842000E-09	 2.04589000E-04
					 2.86622000E-03	 4.12794000E-09	 2.09311000E-04
					 2.86708000E-03	 4.15453000E-09	 2.54395000E-04
					 3.57245000E-03	 4.32263000E-09	 5.99412000E-05
					 3.57352000E-03	 4.35033000E-09	 2.20443000E-05
					-3.70621000E-03	 4.47896000E-09	 6.30447000E-05
					-3.70732000E-03	 4.50645000E-09	 2.68717000E-05
					-2.70099000E-03	 4.61126000E-09	 2.11685000E-04
					-2.70180000E-03	 4.63999000E-09	 2.58088000E-04
					 4.34131000E-03	 4.69917000E-09	 1.73632000E-04
					 4.34261000E-03	 4.72842000E-09	 1.98894000E-04
					 1.68021000E-03	 4.74222000E-09	 3.39388000E-05
					 1.68071000E-03	 4.76971000E-09	-1.84036000E-05
					-4.73638000E-03	 4.77216000E-09	 1.04839000E-04
					-4.73779000E-03	 4.79985000E-09	 9.18841000E-05
					-5.66522000E-04	 4.78728000E-09	 2.27861000E-04
					-5.66692000E-04	 4.81559000E-09	 2.83249000E-04
					 4.86959000E-03	 4.75781000E-09	 1.28034000E-04
					 4.87105000E-03	 4.78464000E-09	 1.27965000E-04
					-5.78467000E-04	 4.70187000E-09	 2.84848000E-05
					-5.78640000E-04	 4.72769000E-09	-2.68874000E-05
					-4.73358000E-03	 4.64295000E-09	 1.51719000E-04
					-4.73500000E-03	 4.66862000E-09	 1.64808000E-04
					 1.69155000E-03	 4.57832000E-09	 2.22290000E-04
					 1.69206000E-03	 4.60295000E-09	 2.74586000E-04
					 4.33564000E-03	 4.48483000E-09	 8.24693000E-05
					 4.33694000E-03	 4.50920000E-09	 5.70808000E-05
					-2.71022000E-03	 4.36673000E-09	 4.47492000E-05
					-2.71103000E-03	 4.38894000E-09	-1.56349000E-06
					-3.70125000E-03	 4.26243000E-09	 1.93534000E-04
					-3.70236000E-03	 4.28353000E-09	 2.29763000E-04
					 3.59123000E-03	 4.18544000E-09	 1.95919000E-04
					 3.59230000E-03	 4.20703000E-09	 2.33897000E-04
					 2.81703000E-03	 4.09959000E-09	 4.78758000E-05
					 2.81787000E-03	 4.12098000E-09	 2.03359000E-06
					-4.10557000E-03	 3.98850000E-09	 7.54654000E-05
					-4.10680000E-03	 4.00816000E-09	 5.08079000E-05
					-2.40202000E-03	 3.97527000E-09	 2.34973000E-04
					-2.40273000E-03	 3.99130000E-09	 2.77164000E-04
					 6.56966000E-03	 1.39643000E-03	 1.03229000E-04
					 6.57162000E-03	 1.39684000E-03	 1.53095000E-04
					 6.13577000E-03	 2.73182000E-03	 1.03229000E-04
					 6.13760000E-03	 2.73264000E-03	 1.53095000E-04
					 5.43371000E-03	 3.94782000E-03	 1.03229000E-04
					 5.43533000E-03	 3.94900000E-03	 1.53095000E-04
					 4.49417000E-03	 4.99128000E-03	 1.03229000E-04
					 4.49551000E-03	 4.99277000E-03	 1.53095000E-04
					 3.35821000E-03	 5.81659000E-03	 1.03229000E-04
					 3.35922000E-03	 5.81833000E-03	 1.53095000E-04
					 2.07549000E-03	 6.38769000E-03	 1.03229000E-04
					 2.07611000E-03	 6.38960000E-03	 1.53095000E-04
					 7.02058000E-04	 6.67962000E-03	 1.03229000E-04
					 7.02268000E-04	 6.68161000E-03	 1.53095000E-04
					-7.02056000E-04	 6.67962000E-03	 1.03229000E-04
					-7.02266000E-04	 6.68162000E-03	 1.53095000E-04
					-2.07549000E-03	 6.38770000E-03	 1.03229000E-04
					-2.07611000E-03	 6.38960000E-03	 1.53095000E-04
					-3.35821000E-03	 5.81660000E-03	 1.03229000E-04
					-3.35922000E-03	 5.81833000E-03	 1.53095000E-04
					-4.49417000E-03	 4.99128000E-03	 1.03229000E-04
					-4.49551000E-03	 4.99277000E-03	 1.53095000E-04
					-5.43371000E-03	 3.94782000E-03	 1.03229000E-04
					-5.43533000E-03	 3.94900000E-03	 1.53095000E-04
					-6.13576000E-03	 2.73182000E-03	 1.03230000E-04
					-6.13759000E-03	 2.73263000E-03	 1.53095000E-04
					-6.56965000E-03	 1.39642000E-03	 1.03230000E-04
					-6.57161000E-03	 1.39684000E-03	 1.53096000E-04
					-6.71642000E-03	 1.49616000E-09	 1.03230000E-04
					-6.71842000E-03	 1.51005000E-09	 1.53095000E-04
					-6.56965000E-03	-1.39642000E-03	 1.03230000E-04
					-6.57161000E-03	-1.39684000E-03	 1.53095000E-04
					-6.13575000E-03	-2.73181000E-03	 1.03229000E-04
					-6.13758000E-03	-2.73263000E-03	 1.53095000E-04
					-5.43370000E-03	-3.94781000E-03	 1.03229000E-04
					-5.43532000E-03	-3.94899000E-03	 1.53095000E-04
					-4.49416000E-03	-4.99127000E-03	 1.03230000E-04
					-4.49550000E-03	-4.99276000E-03	 1.53095000E-04
					-3.35821000E-03	-5.81659000E-03	 1.03230000E-04
					-3.35921000E-03	-5.81833000E-03	 1.53096000E-04
					-2.07549000E-03	-6.38770000E-03	 1.03230000E-04
					-2.07611000E-03	-6.38961000E-03	 1.53096000E-04
					-7.02058000E-04	-6.67963000E-03	 1.03230000E-04
					-7.02267000E-04	-6.68162000E-03	 1.53096000E-04
					 7.02057000E-04	-6.67963000E-03	 1.03230000E-04
					 7.02267000E-04	-6.68162000E-03	 1.53096000E-04
					 2.07549000E-03	-6.38770000E-03	 1.03230000E-04
					 2.07611000E-03	-6.38960000E-03	 1.53095000E-04
					 3.35821000E-03	-5.81659000E-03	 1.03229000E-04
					 3.35921000E-03	-5.81833000E-03	 1.53095000E-04
					 4.49416000E-03	-4.99127000E-03	 1.03229000E-04
					 4.49550000E-03	-4.99276000E-03	 1.53095000E-04
					 5.43369000E-03	-3.94781000E-03	 1.03229000E-04
					 5.43532000E-03	-3.94899000E-03	 1.53095000E-04
					 6.13575000E-03	-2.73181000E-03	 1.03229000E-04
					 6.13758000E-03	-2.73263000E-03	 1.53095000E-04
					 6.56965000E-03	-1.39642000E-03	 1.03229000E-04
					 6.57161000E-03	-1.39684000E-03	 1.53095000E-04
					-4.73007000E-03	-1.00541000E-03	 1.39949000E-04
					-4.73148000E-03	-1.00571000E-03	 1.46509000E-04
					 1.11257000E-03	 2.36484000E-04	 2.25774000E-04
					 1.11290000E-03	 2.36555000E-04	 2.79999000E-04
					 4.46861000E-03	 9.49832000E-04	 9.33965000E-05
					 4.46994000E-03	 9.50115000E-04	 7.40864000E-05
					-2.16321000E-03	-4.59804000E-04	 3.87238000E-05
					-2.16385000E-03	-4.59941000E-04	-1.09612000E-05
					-3.95995000E-03	-8.41714000E-04	 1.83947000E-04
					-3.96113000E-03	-8.41965000E-04	 2.14939000E-04
					 3.09429000E-03	 6.57711000E-04	 2.04475000E-04
					 3.09521000E-03	 6.57907000E-04	 2.46873000E-04
					 3.23236000E-03	 6.87058000E-04	 5.44251000E-05
					 3.23332000E-03	 6.87264000E-04	 1.34639000E-05
					-3.85431000E-03	-8.19259000E-04	 6.91779000E-05
					-3.85546000E-03	-8.19504000E-04	 3.64119000E-05
					-2.32607000E-03	-4.94421000E-04	 2.15759000E-04
					-2.32676000E-03	-4.94569000E-04	 2.64425000E-04
					 4.40123000E-03	 9.35510000E-04	 1.66541000E-04
					 4.40254000E-03	 9.35789000E-04	 1.87864000E-04
					 1.29117000E-03	 2.74446000E-04	 3.15321000E-05
					 1.29155000E-03	 2.74528000E-04	-2.21470000E-05
					-4.70483000E-03	-1.00004000E-03	 1.12495000E-04
					-4.70623000E-03	-1.00034000E-03	 1.03794000E-04
					-1.84899000E-04	-3.93022000E-05	 2.28467000E-04
					-1.84954000E-04	-3.93140000E-05	 2.84192000E-04
					 4.74830000E-03	 1.00928000E-03	 1.20235000E-04
					 4.74972000E-03	 1.00958000E-03	 1.15833000E-04
					-9.31599000E-04	-1.98018000E-04	 2.97124000E-05
					-9.31877000E-04	-1.98077000E-04	-2.49776000E-05
					-4.52925000E-03	-9.62723000E-04	 1.59229000E-04
					-4.53061000E-03	-9.63011000E-04	 1.76490000E-04
					 1.99658000E-03	 4.24386000E-04	 2.19297000E-04
					 1.99718000E-03	 4.24513000E-04	 2.69929000E-04
					 4.05979000E-03	 8.62935000E-04	 7.56567000E-05
					 4.06101000E-03	 8.63193000E-04	 4.64904000E-05
					-2.95118000E-03	-6.27293000E-04	 4.93629000E-05
					-2.95206000E-03	-6.27481000E-04	 5.58948000E-06
					-3.36588000E-03	-7.15440000E-04	 1.99186000E-04
					-3.36688000E-03	-7.15653000E-04	 2.38645000E-04
					 3.74262000E-03	 7.95518000E-04	 1.90251000E-04
					 3.74373000E-03	 7.95755000E-04	 2.24747000E-04
					 2.48587000E-03	 5.28389000E-04	 4.25290000E-05
					 2.48662000E-03	 5.28547000E-04	-5.04104000E-06
					-4.32713000E-03	-9.19758000E-04	 8.61981000E-05
					-4.32842000E-03	-9.20033000E-04	 6.28880000E-05
					-1.46842000E-03	-3.12122000E-04	 2.23652000E-04
					-1.46886000E-03	-3.12215000E-04	 2.76703000E-04
					 4.67241000E-03	 9.93152000E-04	 1.47663000E-04
					 4.67380000E-03	 9.93449000E-04	 1.58499000E-04
					 3.69798000E-04	 7.86044000E-05	 2.80764000E-05
					 3.69909000E-04	 7.86279000E-05	-2.75225000E-05
					-4.75935000E-03	-1.01163000E-03	 1.32184000E-04
					-4.76077000E-03	-1.01193000E-03	 1.34422000E-04
					 7.49292000E-04	 1.59269000E-04	 2.27292000E-04
					 7.49516000E-04	 1.59316000E-04	 2.82365000E-04
					 4.58318000E-03	 9.74187000E-04	 1.00821000E-04
					 4.58455000E-03	 9.74478000E-04	 8.56346000E-05
					-1.82693000E-03	-3.88324000E-04	 3.54511000E-05
					-1.82747000E-03	-3.88440000E-04	-1.60510000E-05
					-4.15359000E-03	-8.82870000E-04	 1.77293000E-04
					-4.15483000E-03	-8.83134000E-04	 2.04589000E-04
					 2.80359000E-03	 5.95925000E-04	 2.09311000E-04
					 2.80443000E-03	 5.96103000E-04	 2.54395000E-04
					 3.49439000E-03	 7.42759000E-04	 5.99411000E-05
					 3.49544000E-03	 7.42981000E-04	 2.20441000E-05
					-3.62522000E-03	-7.70561000E-04	 6.30445000E-05
					-3.62630000E-03	-7.70791000E-04	 2.68715000E-05
					-2.64196000E-03	-5.61563000E-04	 2.11685000E-04
					-2.64275000E-03	-5.61731000E-04	 2.58088000E-04
					 4.24645000E-03	 9.02614000E-04	 1.73631000E-04
					 4.24772000E-03	 9.02884000E-04	 1.98894000E-04
					 1.64350000E-03	 3.49340000E-04	 3.39387000E-05
					 1.64399000E-03	 3.49444000E-04	-1.84037000E-05
					-4.63287000E-03	-9.84744000E-04	 1.04839000E-04
					-4.63425000E-03	-9.85038000E-04	 9.18840000E-05
					-5.54138000E-04	-1.17782000E-04	 2.27861000E-04
					-5.54303000E-04	-1.17817000E-04	 2.83249000E-04
					 4.76319000E-03	 1.01245000E-03	 1.28034000E-04
					 4.76461000E-03	 1.01275000E-03	 1.27965000E-04
					-5.65821000E-04	-1.20266000E-04	 2.84848000E-05
					-5.65990000E-04	-1.20302000E-04	-2.68874000E-05
					-4.63014000E-03	-9.84163000E-04	 1.51719000E-04
					-4.63152000E-03	-9.84457000E-04	 1.64808000E-04
					 1.65459000E-03	 3.51698000E-04	 2.22290000E-04
					 1.65509000E-03	 3.51803000E-04	 2.74586000E-04
					 4.24090000E-03	 9.01435000E-04	 8.24693000E-05
					 4.24217000E-03	 9.01704000E-04	 5.70808000E-05
					-2.65100000E-03	-5.63483000E-04	 4.47492000E-05
					-2.65179000E-03	-5.63651000E-04	-1.56347000E-06
					-3.62037000E-03	-7.69530000E-04	 1.93534000E-04
					-3.62145000E-03	-7.69760000E-04	 2.29763000E-04
					 3.51275000E-03	 7.46662000E-04	 1.95919000E-04
					 3.51380000E-03	 7.46885000E-04	 2.33897000E-04
					 2.75547000E-03	 5.85697000E-04	 4.78758000E-05
					 2.75629000E-03	 5.85872000E-04	 2.03359000E-06
					-4.01585000E-03	-8.53591000E-04	 7.54654000E-05
					-4.01705000E-03	-8.53846000E-04	 5.08079000E-05
					-2.34952000E-03	-4.99403000E-04	 2.34973000E-04
					-2.35022000E-03	-4.99552000E-04	 2.77164000E-04
					-4.41767000E-03	-1.96687000E-03	 1.39949000E-04
					-4.41899000E-03	-1.96746000E-03	 1.46509000E-04
					 1.03909000E-03	 4.62633000E-04	 2.25774000E-04
					 1.03940000E-03	 4.62771000E-04	 2.79999000E-04
					 4.17348000E-03	 1.85815000E-03	 9.33965000E-05
					 4.17472000E-03	 1.85871000E-03	 7.40864000E-05
					-2.02034000E-03	-8.99512000E-04	 3.87239000E-05
					-2.02094000E-03	-8.99781000E-04	-1.09611000E-05
					-3.69841000E-03	-1.64664000E-03	 1.83947000E-04
					-3.69952000E-03	-1.64713000E-03	 2.14939000E-04
					 2.88992000E-03	 1.28668000E-03	 2.04475000E-04
					 2.89079000E-03	 1.28706000E-03	 2.46873000E-04
					 3.01887000E-03	 1.34409000E-03	 5.44251000E-05
					 3.01978000E-03	 1.34449000E-03	 1.34640000E-05
					-3.59975000E-03	-1.60271000E-03	 6.91780000E-05
					-3.60082000E-03	-1.60319000E-03	 3.64119000E-05
					-2.17244000E-03	-9.67233000E-04	 2.15759000E-04
					-2.17309000E-03	-9.67522000E-04	 2.64425000E-04
					 4.11055000E-03	 1.83013000E-03	 1.66541000E-04
					 4.11177000E-03	 1.83068000E-03	 1.87864000E-04
					 1.20589000E-03	 5.36898000E-04	 3.15321000E-05
					 1.20625000E-03	 5.37058000E-04	-2.21470000E-05
					-4.39410000E-03	-1.95638000E-03	 1.12496000E-04
					-4.39541000E-03	-1.95696000E-03	 1.03794000E-04
					-1.72689000E-04	-7.68860000E-05	 2.28467000E-04
					-1.72740000E-04	-7.69090000E-05	 2.84192000E-04
					 4.43469000E-03	 1.97445000E-03	 1.20235000E-04
					 4.43602000E-03	 1.97504000E-03	 1.15833000E-04
					-8.70072000E-04	-3.87381000E-04	 2.97123000E-05
					-8.70332000E-04	-3.87497000E-04	-2.49777000E-05
					-4.23012000E-03	-1.88337000E-03	 1.59229000E-04
					-4.23138000E-03	-1.88393000E-03	 1.76490000E-04
					 1.86472000E-03	 8.30225000E-04	 2.19297000E-04
					 1.86527000E-03	 8.30472000E-04	 2.69929000E-04
					 3.79166000E-03	 1.68816000E-03	 7.56567000E-05
					 3.79279000E-03	 1.68866000E-03	 4.64903000E-05
					-2.75627000E-03	-1.22717000E-03	 4.93628000E-05
					-2.75709000E-03	-1.22754000E-03	 5.58937000E-06
					-3.14358000E-03	-1.39961000E-03	 1.99186000E-04
					-3.14452000E-03	-1.40003000E-03	 2.38645000E-04
					 3.49543000E-03	 1.55627000E-03	 1.90251000E-04
					 3.49648000E-03	 1.55673000E-03	 2.24747000E-04
					 2.32169000E-03	 1.03368000E-03	 4.25289000E-05
					 2.32239000E-03	 1.03399000E-03	-5.04119000E-06
					-4.04134000E-03	-1.79932000E-03	 8.61979000E-05
					-4.04255000E-03	-1.79986000E-03	 6.28879000E-05
					-1.37144000E-03	-6.10604000E-04	 2.23652000E-04
					-1.37185000E-03	-6.10786000E-04	 2.76703000E-04
					 4.36382000E-03	 1.94290000E-03	 1.47663000E-04
					 4.36512000E-03	 1.94348000E-03	 1.58499000E-04
					 3.45376000E-04	 1.53771000E-04	 2.80763000E-05
					 3.45479000E-04	 1.53817000E-04	-2.75226000E-05
					-4.44501000E-03	-1.97905000E-03	 1.32184000E-04
					-4.44634000E-03	-1.97964000E-03	 1.34421000E-04